 -6.9139232e-06   2.4098131e-07
  1.0856503e-05   2.9726971e-07
  1.7464893e-06   1.6331577e-06
  1.1566379e-05   1.3574927e-07
  5.3595459e-06   9.3743205e-07
 -2.2767681e-06   9.4017923e-07
 -1.9938356e-05   1.6178937e-07
 -1.1909876e-04   4.6605734e-08
  2.4282467e-06   6.6487800e-08
  9.8569444e-06   1.6724267e-07
 -3.5539156e-06   2.3193310e-07
  6.1017909e-06   5.2406875e-07
 -1.1790971e-05   4.4839940e-06
 -7.5538001e-06   2.2290077e-07
 -5.4862812e-07   4.2832280e-08
  8.2899223e-06   3.8768485e-07
 -8.6494128e-06   2.4865460e-06
  1.4303509e-05   2.1770720e-06
  1.6669212e-05   1.1812613e-06
 -9.5797495e-06   2.8967901e-07
 -8.2076554e-07   2.1527805e-07
 -5.8444124e-07   8.4496300e-08
  3.0364157e-05   5.4459139e-07
 -1.8840006e-05   5.4683705e-06
  7.1418121e-06   1.5604679e-06
 -1.0146455e-06   1.1144715e-06
  2.9840159e-05   9.7385055e-08
  1.4237340e-05   1.6283030e-07
  1.0270648e-05   2.3554446e-08
  9.1211214e-06   4.5734589e-07
  5.8300152e-06   2.1071142e-07
  1.6261469e-05   2.0995312e-06
  1.8252131e-05   4.3650653e-06
 -1.8069857e-05   1.2509538e-07
  2.9286073e-05   3.0740799e-07
 -2.4312654e-05   1.5507175e-07
 -4.6043846e-07   1.6197531e-06
 -8.9028310e-07   3.8866306e-06
  1.8056924e-05   9.0758908e-07
 -2.4218882e-05   8.0442684e-09
  1.0530585e-05   1.1987373e-06
 -2.9100534e-05   2.1800595e-07
 -6.1979349e-06   1.0524761e-07
  3.5075616e-05   6.7916867e-06
 -6.0806196e-05   1.6878199e-07
 -2.6686210e-05   9.1396231e-07
 -1.3502829e-05   5.0183456e-07
 -6.3831794e-05   1.7841134e-07
  1.3097381e-05   1.5814296e-06
  5.4859527e-05   7.6748228e-07
 -1.9361652e-05   8.9045551e-07
  2.2524851e-05   1.7334269e-06
  8.0318819e-07   1.1214861e-06
 -4.6542526e-05   1.8586155e-07
 -9.8470604e-01   1.2306107e-08
  6.3662750e-01   5.8501279e-09
  5.1836991e-01   3.0694007e-08
 -5.2820367e-01   3.5167972e-08
  3.3616027e-01   1.7522892e-08
 -7.8405648e-01   8.9121471e-08
 -2.3860614e-01   4.3966651e-08
 -2.7120128e-02   2.5477108e-08
 -4.8838267e-01   1.4182303e-08
 -5.2493531e-03   1.2277283e-07
  2.0654571e-01   4.5323674e-09
 -5.2736974e-01   1.8537888e-07
 -4.6766773e-02   2.2371616e-08
 -4.0340275e-01   4.1226911e-09
  3.5777491e-02   4.2234241e-08
 -1.2659002e-02   1.4401687e-07
 -2.7018312e-01   5.8587247e-08
 -6.3161761e-02   1.7565506e-08
 -3.9203137e-01   2.1430374e-08
  3.1921542e-01   1.6405199e-08
 -1.5847409e-02   5.8312757e-08
  1.0356338e-01   5.2778586e-07
  1.1927870e-02   1.9006708e-07
  2.7217015e-06   1.6034647e-07
 -2.5871725e-06   1.5100289e-07
 -1.7508043e-01   7.3642994e-08
  7.4946702e-02   1.8855207e-08
 -5.8543342e-01   2.3691726e-08
  5.5210143e-01   2.5732245e-08
 -2.5664285e-05   1.0779666e-07
 -4.3022165e-01   6.7704383e-07
 -5.3319859e-06   2.1602217e-08
 -3.3626517e-03   1.4126198e-07
  3.4396890e-01   1.9703381e-07
 -6.1430079e-01   7.6434667e-08
  3.7268069e-02   5.2855786e-08
 -2.3133362e-02   8.2286022e-07
  2.0996977e-01   3.7911217e-08
 -5.5734847e-02   1.4483625e-07
  1.4429651e-02   1.3596120e-06
 -1.9518960e-04   4.6187560e-07
  7.2453177e-01   1.1742418e-07
  8.9983664e-02   3.0513351e-07
 -4.1987005e-01   4.4875129e-08
 -3.4035176e-01   3.8408626e-08
  1.0751428e-01   1.1261500e-07
 -3.4481812e-01   8.0816811e-09
 -1.4936121e-01   2.8647476e-06
 -1.6144121e-02   2.8621278e-07
  2.0889695e-01   3.9016692e-07
 -9.6710473e-06   6.2349682e-07
  5.8374990e-05   1.0561881e-06
 -7.4691325e-02   7.8212686e-08
  2.9222047e-06   2.1094567e-07
  1.1267721e-01   4.8731579e-07
 -5.0137889e-01   1.2884998e-07
  1.8420591e-03   2.0541961e-08
 -5.0884849e-01   3.9659309e-07
  1.9407219e-01   1.8794618e-07
 -6.1521000e-06   2.0563665e-07
  4.6853314e-04   5.0216325e-08
  2.5294527e-01   6.0169974e-08
 -2.2813100e-01   2.1315875e-08
 -2.5841879e-05   9.7682414e-07
  2.2086030e-02   2.0105203e-07
  1.2990308e-01   4.5170324e-07
  3.3053052e-08   3.7099607e-08
 -5.2135059e-04   5.8802958e-09
  4.6944460e-01   9.6235730e-08
  2.0915040e-01   2.3143127e-07
 -5.9490840e-06   3.3882035e-08
  8.5663396e-06   6.7767132e-08
 -1.5799398e-02   1.8733931e-07
 -3.1473205e-04   1.1409285e-07
  4.1297005e-04   9.8791998e-07
  1.8792472e-05   6.5287782e-07
  1.0046586e-01   1.0742404e-08
 -4.9180780e-05   3.6706763e-06
 -8.5894618e-07   4.2283972e-07
 -2.0952371e-05   7.1900438e-08
 -9.8349363e-02   1.0600564e-07
  2.8799795e-05   1.2381268e-07
 -2.8933075e-01   1.1455847e-07
 -6.3351299e-06   7.0443640e-08
  2.6357557e-06   5.7749651e-07
  7.2094826e-07   2.7064169e-07
 -1.7377513e-05   7.2812107e-08
 -1.3158519e-05   3.7362568e-07
 -2.2149508e-01   4.1872649e-08
 -5.8584720e-01   3.6795861e-08
  1.4535495e-05   6.9666555e-08
 -3.4365002e-03   4.5851081e-07
 -3.0867036e-06   5.9270428e-07
  6.8632844e-06   7.4037314e-07
  2.3344376e-06   2.6483994e-07
 -2.2277714e-05   1.1994508e-08
  5.1022316e-06   1.2714584e-07
 -3.2252481e-06   9.7100767e-08
 -1.1889344e-02   2.9896958e-07
 -1.0547234e-04   3.0531152e-07
 -2.3834782e-02   3.5236388e-07
  1.5747928e-06   5.7615847e-07
  2.2001224e-05   5.0682269e-07
 -6.6683128e-07   1.2844988e-07
  1.5446767e-05   1.0020128e-07
 -3.3374490e-06   2.6647126e-07
 -1.9289960e-06   8.1638262e-07
 -2.7658095e-06   8.7889498e-07
  1.3300609e-06   2.0424757e-06
 -1.7054339e-05   5.5098104e-07
 -1.0333461e-05   7.0511794e-07
  8.7857334e-06   2.3153584e-06
  8.4183461e-07   1.0636408e-06
  6.2021227e-06   2.5497297e-06
 -2.7346568e-05   8.8123059e-08
 -2.5494503e-05   8.4711695e-07
  3.2412932e-05   3.7585633e-07
  1.1805520e-05   6.6175784e-07
  2.5642581e-05   1.0808603e-07
  1.1441432e-05   2.2556107e-07
 -2.7716764e-05   6.5661521e-07
  7.1417962e-06   2.6237628e-06
  6.5878405e-05   1.0704787e-07
 -1.8618826e-05   8.9276398e-07
  8.9028190e-06   2.0822110e-07
 -1.3257658e-05   3.4796376e-08
 -1.9684096e-05   1.5268813e-07
 -2.4168537e-05   2.3356695e-07
 -1.7647337e-05   3.0871659e-06
  1.4542436e-05   2.1512325e-07
 -1.1545028e-05   1.1170173e-06
  1.2524991e-05   1.0539620e-06
  2.9178706e-05   4.4870753e-06
 -9.4784509e-06   1.3854738e-06
  7.9797146e-06   1.0429188e-06
  1.4857686e-05   1.5301250e-06
  2.6467646e-04   1.9277284e-09
 -2.7364797e-05   2.9614483e-07
 -5.1443698e-05   2.5245402e-07
  1.3580009e-05   4.8680799e-06
 -1.2425572e-05   3.3713647e-07
  4.6585337e-06   1.0264022e-06
  4.1927143e-07   1.0275428e-07
 -4.9777682e-06   5.0368868e-07
 -1.1032457e-05   1.6600053e-07
  1.5608152e-06   3.6596357e-06
 -5.7461340e-05   7.6174467e-07
  9.3508997e-06   1.5592703e-06
 -2.4770863e-05   3.7221582e-08
 -2.9707020e-05   4.2815589e-07
 -2.0660089e-08   4.4056088e-07
  1.6385754e-06   1.2172990e-06
  1.0051767e-05   1.3813577e-06
  5.4191270e-07   4.0851964e-07
  2.0379564e-05   3.5662016e-08
  3.8237149e-06   8.1718463e-07
  4.4409135e-06   2.0514599e-07
  3.8177262e-05   1.0011561e-07
  1.2992195e-05   1.8758301e-06
 -2.4328474e-05   1.2672597e-06
  1.3568683e-05   3.0475101e-07
 -8.3762706e-07   1.1219863e-06
 -9.8909080e-01   1.7781961e-10
 -2.4792094e+00   1.3020323e-08
 -3.1207901e-01   1.7043406e-09
  1.2719624e+00   3.0420872e-09
  1.0131803e+00   1.6910333e-08
 -3.6117679e-01   1.4944369e-09
 -1.7379392e+00   6.1692669e-09
 -1.2701056e+00   9.6456416e-09
  1.9221404e+00   1.7538129e-09
 -2.5197324e-01   1.1641416e-08
  4.9545830e-01   1.5389826e-08
 -2.2435910e-05   4.1751684e-07
  3.0888179e-01   5.1814770e-09
  4.1720912e-01   5.0020635e-08
  4.8663041e-01   1.8897609e-08
  2.1867031e-01   8.6936090e-08
  1.3361906e-02   4.3387485e-07
  5.1628616e-02   5.2141516e-08
 -1.1849083e+00   6.2924066e-08
  2.4789855e-01   3.8293852e-08
 -2.8548035e-01   9.4097103e-08
  1.2423679e+00   1.8704556e-08
 -7.5455614e-06   1.9407064e-08
  2.7257260e-02   6.2114651e-08
  1.2804964e-03   7.6305069e-09
 -4.0123826e-03   7.5228854e-09
 -4.7042411e-02   1.6937042e-08
  4.1830665e-01   1.7262909e-07
  2.4626746e+00   4.0106212e-08
 -8.7636507e-01   4.2650530e-08
 -2.0234304e-05   6.8349948e-09
 -8.3350160e-06   7.4569449e-08
 -7.9403087e-02   9.1279961e-09
  5.8868021e-02   5.8706524e-09
 -2.3574495e+00   1.0299674e-08
 -8.1444740e-01   4.1361852e-09
  9.2533424e-02   2.8987300e-08
  1.8166103e+00   4.7912390e-09
 -7.6266688e-01   2.7443623e-09
  1.3271683e-01   3.7493685e-08
  4.5811644e-01   4.0681236e-09
 -1.8158869e-01   1.5463867e-08
 -1.1067224e+00   2.2754786e-08
  2.8521287e-01   4.2009818e-09
 -7.6035738e-01   8.0798719e-09
  3.9905283e-04   1.4704426e-08
 -5.6312565e-02   5.3416645e-08
 -3.6973430e-05   2.6412576e-07
 -5.3869240e-04   7.2925002e-07
  2.6387122e-01   3.2432294e-07
 -4.1682211e-05   8.7043347e-08
 -1.8144830e-06   3.4655659e-07
  1.3849155e-05   5.0175991e-08
  5.0966716e-01   1.7608552e-06
 -2.7026937e-05   2.6311234e-08
  9.5681347e-02   2.8240082e-08
  2.7387834e-05   5.2375196e-07
 -1.7047921e-06   1.5731594e-06
 -7.3718979e-07   9.1510958e-07
  4.9767614e-06   1.3712744e-07
  4.9053197e-05   1.4006374e-08
  4.5463534e-05   4.5482345e-08
 -9.4986117e-06   7.4227877e-09
 -4.5888250e-06   1.0248009e-07
 -1.0793875e-05   5.4598678e-07
  9.5651312e-06   3.4442544e-07
 -1.9009847e-05   2.7188833e-07
  1.1628534e-06   8.2053218e-09
  1.6878823e-05   1.0655543e-06
 -8.2724855e-06   1.6782420e-07
 -4.0236750e-06   6.9414705e-07
 -2.1768237e-06   9.1639231e-07
  2.6647882e-07   1.9414415e-06
 -1.8096827e-05   1.6087510e-07
 -1.2304056e-05   4.3650747e-08
 -1.3841212e-05   5.0130967e-07
 -6.9835860e-06   1.0096574e-06
 -4.2053864e-05   5.5596911e-07
  7.8248042e-05   1.2443249e-08
  2.8092376e-05   7.6872669e-07
 -6.1910114e-08   6.6279694e-07
 -1.2577041e-06   2.3052116e-06
  1.7015927e-05   2.2483948e-07
  2.7536340e-05   8.3031745e-07
  2.0899417e-05   3.1629638e-06
 -5.6198110e-06   2.0763704e-07
 -5.1572124e-06   8.6787321e-07
 -1.8894298e-05   4.6156848e-07
  3.2712247e-05   4.7432539e-07
  5.1512370e-06   6.5138842e-08
 -1.1559043e-05   3.6891734e-07
  4.3064724e-06   1.4532784e-08
 -6.1347282e-07   4.9538750e-07
 -1.1894948e-05   4.0186160e-07
 -6.7162902e-05   2.0035841e-06
  3.0536967e-06   2.2514689e-06
  1.0560131e-05   4.5547267e-07
 -3.1179884e-06   8.8404119e-07
  2.4567309e-05   5.1905133e-08
  5.2660511e-05   2.8134663e-08
 -1.8164810e-06   1.1865528e-07
  4.2882357e-06   1.2112953e-06
  2.6646551e-06   4.1301909e-08
 -8.3597561e-06   3.0202674e-08
  5.2123614e-06   2.2056254e-06
  4.3166633e-06   9.3521578e-08
 -5.0978479e-06   6.4063607e-07
  1.7691975e-05   7.8387808e-07
  1.0124720e-01   5.8209704e-08
 -9.7643986e-02   1.3756768e-08
 -1.5408937e-04   1.7965176e-08
  5.0901419e-01   3.8908854e-09
 -7.7681686e-03   1.3766169e-07
  2.8735891e-01   3.9818037e-08
  2.2750533e-05   7.5704115e-08
  1.2973312e-02   2.4544223e-08
 -5.9606668e-02   2.3624303e-08
  1.3207479e-01   5.1930755e-08
 -1.0899316e-01   1.0404417e-08
  1.9180363e-01   2.7633794e-07
  4.4956647e-02   2.8304575e-08
 -8.9948961e-05   5.9601486e-08
 -1.7858366e-04   1.6252437e-07
 -2.8404826e-05   1.1071442e-07
  2.2107824e-03   2.6049867e-07
 -1.6497107e-01   1.8332430e-07
  5.9871418e-05   1.7660435e-07
 -4.2038220e-01   5.3785737e-08
 -1.1028307e-01   8.8169955e-08
 -4.0317354e-05   1.6651568e-07
 -2.1962477e-02   3.6874735e-07
 -6.2678158e-02   2.7332268e-07
  2.3724746e-03   7.3371787e-08
  1.3310361e-01   3.4977367e-07
 -3.8385306e-07   1.6917557e-08
 -4.9650524e-04   9.1577147e-07
  9.7140275e-02   1.1651402e-08
  5.7323939e-01   5.9088148e-07
 -6.8296515e-07   8.8135067e-07
 -8.5163794e-02   2.2379373e-07
 -3.7110555e-01   2.7873051e-08
  2.8995743e-02   2.1750350e-07
  3.6163342e-01   5.4559922e-07
  1.9566339e-01   1.5318257e-07
 -4.1329062e-05   5.2148607e-08
 -7.3756468e-03   4.9793920e-07
 -3.1612251e-06   3.1258730e-07
  1.6702219e-05   8.0032038e-07
 -3.0539988e-07   3.0418028e-07
 -2.9056646e-05   6.7890102e-07
  1.8038601e-06   9.1974833e-08
  7.1837749e-06   4.3165943e-07
 -2.8426304e-05   3.3775441e-07
  2.1556867e-05   1.5718426e-06
 -1.2102380e-05   7.3221457e-08
 -4.1173793e-02   1.6777173e-07
  4.8744155e-06   6.9852362e-08
  8.0550608e-06   4.7515573e-07
  3.8068499e-06   2.7249223e-07
  5.3590011e-02   9.8884641e-07
 -9.3952513e-06   3.8916667e-07
 -1.9061598e-01   6.0939115e-08
  1.3571432e-01   1.6030565e-08
 -1.0847926e-02   1.9972342e-08
  1.5548655e+00   6.7260046e-08
 -5.6676197e-01   1.2526881e-07
 -4.7516469e-02   5.7672902e-09
  1.0237067e+00   1.8742314e-08
  3.5978296e-01   1.4903918e-07
  6.6289119e-02   1.1229477e-08
  1.0250349e-02   3.7144858e-08
 -6.8533516e-01   2.8189982e-07
  1.7877869e-01   1.9489573e-07
 -5.5152649e-01   1.3159493e-07
 -3.4902924e-01   7.2175461e-09
 -1.8386373e-01   5.9546434e-08
 -4.4594016e-02   4.5151062e-08
  3.4606732e-05   2.1152246e-08
 -2.9095817e-01   6.4052074e-08
 -1.1581174e-01   2.9875565e-07
  8.7873632e-06   2.0733370e-07
  6.2388998e-01   1.5838975e-08
 -5.3708965e-01   3.4000021e-09
  5.4462031e-05   8.9917078e-09
 -1.3253675e-02   2.0727865e-07
 -2.4908982e-01   6.5179938e-07
  2.1223491e-04   3.1680274e-09
 -5.8290905e-01   1.4999164e-07
  5.9469324e-01   2.5165281e-07
  2.1626578e-04   2.7378135e-06
 -7.3002249e-01   2.1078367e-08
 -1.0527585e+00   7.2239644e-08
  2.0875537e-01   1.5670972e-06
 -8.1445587e-01   8.8803134e-08
  7.0469898e-05   7.2311911e-07
  1.2880180e-06   4.9584976e-08
 -1.2475492e+00   7.4177564e-08
 -7.0296496e-02   2.0682420e-07
  7.9814345e-05   1.7562382e-07
 -2.0684643e-01   1.6455898e-07
 -7.6710023e-07   5.0062494e-07
 -7.3382012e-06   1.0989903e-07
 -3.3293697e-01   1.5236898e-07
 -1.4338115e-05   7.1951536e-07
  7.3270808e-06   4.1130868e-08
  5.3128388e-05   3.1495448e-09
 -3.1584316e-01   1.6301256e-07
 -7.3368446e-06   9.1690453e-08
 -6.9081962e-01   3.5522550e-08
  1.0567895e-01   3.0934544e-07
  4.4106905e-06   9.3086919e-07
  7.3966227e-02   1.2860804e-08
 -1.9283248e-06   4.8318407e-07
 -5.5391546e-02   2.3489347e-08
 -9.5149331e-02   1.2783069e-07
 -1.1131295e-06   6.8574087e-07
  1.8789422e-05   3.9540353e-07
 -5.0727620e-05   2.4639033e-07
 -2.9376819e-05   4.8181737e-06
  5.6799313e-06   9.6978920e-07
 -3.7484628e-05   1.5768975e-07
 -2.1088301e-06   2.4634454e-07
  1.4209021e-05   4.5696847e-06
  5.6771196e-06   6.4541652e-08
 -4.0531566e-05   2.2884117e-06
  2.0530192e-06   4.3628898e-08
 -6.9417183e-06   2.6323107e-07
 -2.7930955e-06   1.3279932e-08
  3.4155855e-05   1.4778379e-07
  1.3689144e-05   8.3763996e-07
  2.5940564e-05   5.0295426e-08
 -2.2270831e-06   1.2203984e-07
 -1.5619511e-05   1.4291677e-06
  5.8538326e-06   1.6661575e-07
  7.3034248e-06   5.1011278e-07
  1.9026560e-05   2.1210475e-08
 -2.9563005e-06   2.1860978e-06
 -2.6099800e-05   1.2049395e-07
  3.3938484e-06   5.1083712e-06
 -3.1594159e-06   5.3881990e-07
 -1.0311936e-06   2.3420218e-06
 -1.4439319e-06   4.9669660e-07
 -1.7262615e-05   6.7894959e-08
 -2.0036065e-05   1.1954353e-06
  2.1926223e-06   7.1607907e-08
  1.5978252e-05   2.8234317e-06
 -5.5820137e-06   1.1193679e-07
 -3.9974381e-07   1.4773680e-06
  2.2368167e-05   1.4391192e-07
  3.1440963e-05   6.3892867e-06
  3.0253728e-05   2.1239964e-07
  2.1326125e-05   1.7885371e-07
  1.0401030e-05   3.2097727e-08
 -1.3128885e-05   1.3294882e-06
 -6.8527088e-06   1.7286804e-06
 -1.9165620e-06   5.5117897e-07
  6.7407864e-06   1.9793231e-06
  6.9951438e-06   5.4278183e-07
 -1.5300311e-05   3.1986534e-07
  6.3568359e-06   1.0419821e-08
  1.7134966e-05   1.0647434e-07
 -1.7530647e-05   8.2650267e-08
 -6.1351452e-06   1.3900888e-06
  2.6221214e-05   1.5465359e-06
  4.9496539e-06   3.3725857e-07
  9.5714076e-06   1.1853046e-07
  3.3648605e-05   2.2072808e-08
 -5.4027537e-06   1.4510715e-06
  3.1651232e-06   1.8615382e-06
  1.1804559e-05   2.2655852e-06
 -3.8051000e-01   3.2832830e-08
  1.0648813e-01   6.1587237e-08
 -9.2870933e-01   3.8574308e-09
 -8.2506845e-03   2.9188150e-09
 -1.5607303e-01   4.9466163e-08
  9.2453957e-02   3.5856029e-08
  2.0028286e-02   9.8696134e-08
 -1.2073232e+00   2.7889362e-09
 -5.4897357e-02   5.5348838e-08
 -6.6353005e-01   7.0857510e-08
 -3.9291763e-06   2.0096639e-08
  5.5193037e-01   4.6192858e-07
 -1.5986832e-02   5.7731473e-08
 -4.2777529e-01   1.4687161e-07
 -3.1692418e-01   1.8480961e-07
  2.9271987e-01   1.1676806e-07
 -8.7449109e-07   4.4212570e-08
  4.8449636e-03   4.7982496e-08
 -1.5613791e-03   6.4103727e-07
  4.3722786e-02   2.9090680e-08
  2.3806056e-01   4.9990259e-08
 -2.0677951e-06   4.7623161e-08
 -4.2549214e-05   4.1273857e-08
 -5.6337416e-05   9.0839569e-07
 -3.2930884e-06   2.2217078e-07
  8.6646184e-02   1.3177072e-07
  3.5946581e-01   5.1230421e-07
  3.4553313e-03   5.1285948e-08
  7.7457482e-01   3.1502262e-07
  1.1007683e-05   7.0396219e-08
  4.6674036e-03   5.1202981e-08
 -3.1347219e-02   2.9924530e-09
  8.4586900e-06   7.9736333e-07
 -1.3158154e-05   1.2142928e-06
 -2.1418598e-01   1.2874270e-07
 -1.7728516e-01   7.9567961e-08
 -2.6394137e-06   4.2806581e-09
 -1.4790947e-02   5.0191309e-09
  1.7287450e-06   1.6796413e-07
 -1.5055829e-06   4.6380420e-09
 -1.3385613e-03   3.5714816e-09
 -5.1215160e-01   3.3442871e-07
 -1.6320403e-01   8.6699927e-08
  9.4763709e-06   1.4584429e-08
  2.3555030e-01   2.1238197e-08
 -3.7003163e-04   6.8299691e-08
  1.7922631e-02   3.9183865e-09
  6.5003784e-05   9.8392127e-07
  3.9403847e-05   2.2322417e-06
 -1.7926468e-04   8.2189340e-09
  1.5963287e-06   6.4632452e-08
 -1.2666176e-05   1.2589678e-07
  5.4946286e-04   4.5767607e-09
 -1.8068242e-05   1.7380746e-07
  1.6701947e-01   1.2216694e-07
  7.7944048e-02   7.7916802e-08
 -1.3092749e-01   1.1089659e-07
  2.0563540e-04   2.3254030e-08
 -2.2682924e-02   2.8007397e-08
  2.3382051e-04   3.2140889e-08
  1.9484466e-02   1.1621756e-07
  1.0089687e-02   2.0605961e-08
 -3.6172535e-02   4.0389924e-08
 -1.3572204e-06   1.4823711e-08
 -2.2162903e-02   2.8893101e-07
  2.6060818e-02   1.2016824e-07
 -1.4844519e-04   8.3302062e-08
 -5.8585385e-07   1.2919460e-07
 -2.8757958e-03   7.6603868e-08
 -9.2333968e-05   1.6307395e-08
 -3.2882363e-06   1.7033838e-07
 -3.7698343e-04   2.1670564e-08
 -7.1265489e-02   4.6571898e-08
  7.9824753e-02   8.0393335e-08
  2.5064163e-04   5.1305705e-08
 -8.4821113e-05   1.4975527e-08
  6.7451771e-04   1.3374839e-07
 -2.6150644e-06   5.8828906e-08
  6.5968006e-06   2.2033525e-08
  4.9741898e-02   2.8477606e-07
 -3.1706627e-02   3.0464020e-07
 -3.6418476e-06   3.9995174e-07
  2.1363012e-02   2.7474286e-07
  2.8625268e-03   6.0247608e-08
 -2.1074569e-05   3.3611678e-07
 -3.0799119e-06   1.6898295e-07
 -3.5951980e-03   2.2103640e-07
 -3.2484022e-05   3.7492603e-07
  9.9959653e-03   1.2300009e-07
 -1.4578791e-03   1.1642886e-07
  4.5387649e-05   3.3454548e-09
 -9.3116499e-03   1.1070588e-07
  7.3455618e-04   9.9171291e-07
  1.8180073e-05   1.5470269e-07
  2.1361582e-06   1.1392749e-07
 -7.9651206e-04   2.4261460e-08
 -1.1694697e-02   4.1102732e-07
  8.2170645e-06   2.4440757e-08
 -1.4748906e-01   6.0600300e-08
  5.7825100e-06   9.0272181e-08
  5.0633527e-02   2.1109683e-09
 -2.9223965e-04   6.4079613e-09
 -4.8575856e-07   2.0223911e-06
 -1.5221583e-06   1.3948461e-07
 -1.0923012e-05   4.2303753e-07
  1.6578930e-04   3.9618749e-07
 -1.8116592e-05   1.8393882e-07
 -2.8234615e-05   9.1301303e-08
 -8.2521774e-06   1.8237890e-07
  9.0118937e-07   8.3333003e-07
  1.0749598e-05   3.7334587e-07
 -1.4410289e-06   4.9942651e-07
  2.7122151e-05   9.9108220e-08
  2.0039461e-06   2.1384011e-07
 -2.4510941e-06   1.7822964e-07
  2.8157820e-06   2.2550383e-07
 -2.2933896e-06   1.4191538e-06
  3.2577250e-06   7.0527176e-07
 -1.0791995e-05   7.7432981e-07
  1.6563123e-05   8.9094590e-07
  1.2769268e-05   1.3274665e-07
 -5.5618893e-06   1.8171774e-07
  2.0301826e-05   4.0528735e-06
  1.3409041e-06   3.9814040e-06
  4.0824420e-05   1.1626524e-07
  1.9121580e-05   3.0645339e-07
 -7.8629014e-08   3.4170617e-07
  2.6914943e-06   5.2723641e-07
  2.1447970e-05   3.8144865e-09
 -3.7685259e-05   1.1695898e-07
 -1.1426335e-05   2.2439205e-07
  1.5842036e-06   1.0730427e-07
  1.1364067e-05   1.7990494e-07
 -6.0421512e-06   2.1942778e-06
 -5.8383612e-06   1.4194640e-06
 -8.6943345e-07   5.3095511e-07
  9.3026047e-06   1.0865995e-06
 -1.6493467e-06   3.5932576e-08
 -2.0946673e-05   3.4658510e-06
 -3.4713641e-05   6.2081149e-08
  1.7498309e-05   1.8744466e-06
 -4.1630814e-05   4.9268783e-06
 -4.0620918e-05   8.5888018e-08
  1.6001759e-05   1.2203432e-06
  1.0949631e-05   3.7793106e-07
  4.7659273e-06   6.1226950e-07
 -8.2423012e-06   5.4930166e-07
  9.7580278e-06   1.3384747e-06
 -1.8238792e-05   2.7485202e-08
  4.4598699e-05   3.4433927e-07
  9.0834158e-07   1.4770976e-07
  5.9083818e-06   3.2698424e-07
  9.0560279e-06   2.3040602e-08
  1.6785925e-06   2.7274587e-07
 -3.7485075e-05   1.1254976e-07
  4.1528354e-05   6.6756672e-07
 -2.1558793e-05   2.0604657e-06
  1.8176002e-05   3.5365538e-06
 -4.5891291e-05   7.8926846e-08
 -1.8369672e-05   2.0571340e-06
 -3.5277069e-06   1.1225398e-07
 -1.5862035e-05   1.0373871e-06
  5.3990778e-05   1.7748471e-08
  1.0128669e-02   3.6575340e-08
 -7.7672690e-02   2.0150833e-07
  1.3974064e-03   1.5159739e-07
 -1.1138127e-02   2.9978187e-09
  2.8677834e-02   1.5608951e-07
  4.3125596e-02   4.1663448e-08
  1.5658733e-02   2.8880217e-08
 -2.1508818e-05   1.1773006e-07
 -2.3675657e-05   3.2645865e-08
 -1.1682177e-02   1.0375310e-07
  2.5773311e-02   4.0651759e-08
  3.1428400e-04   8.2113445e-08
 -5.6420090e-06   2.2144857e-07
 -2.5318819e-04   1.2049403e-08
 -8.0754158e-05   1.1892987e-07
  1.5770251e-04   8.5392514e-08
 -2.2165254e-02   5.1644120e-09
 -3.1288061e-02   3.3509934e-07
  2.2978357e-03   9.6679237e-08
  9.5144194e-03   3.7284590e-08
 -5.5561756e-04   1.4830711e-08
  6.0139917e-04   8.9935046e-09
 -3.1134921e-05   1.0378021e-07
  3.9788862e-05   3.9159212e-07
  4.5053102e-02   5.4975985e-08
 -7.9270393e-02   9.9041557e-08
 -2.2776769e-05   3.8653843e-07
  8.6059570e-03   4.2701576e-09
  4.2183287e-02   4.1944290e-08
 -2.9079272e-06   5.9256161e-07
 -1.6694667e-02   1.9491580e-08
 -3.7368897e-02   9.6198036e-08
  2.4798766e-05   8.0726707e-08
  4.8104566e-02   1.9748191e-07
 -2.3516013e-05   8.1249034e-09
 -1.7861319e-03   1.8066409e-07
 -2.1140840e-02   2.1723514e-07
  2.3399736e-05   4.5492627e-07
 -1.5971287e-06   5.4825580e-07
  3.7097191e-06   4.7122728e-09
 -1.7923027e-01   3.2472229e-07
 -2.5198967e-03   5.0205738e-08
 -2.9964427e-05   2.3199441e-07
 -1.8363992e-02   5.1540212e-09
 -1.5957760e-06   1.8257557e-08
 -4.2888327e-03   4.8660915e-08
 -1.3770460e-04   3.4834944e-08
 -2.1029002e-05   2.8576306e-07
 -3.8464650e-06   2.2278559e-08
 -1.2241461e-04   1.3761197e-08
  5.9405862e-05   1.1817576e-07
 -4.4850984e-07   7.5394951e-08
 -5.0876336e-03   8.1937181e-08
  7.1673378e-02   1.0700754e-07
  2.5647628e-01   5.9396332e-09
  4.8032040e-03   6.7091449e-08
 -1.6735971e+00   3.6818105e-07
 -2.5871775e-01   9.3286133e-08
 -6.1523622e-01   2.5535877e-08
 -4.2403311e-01   2.0219683e-07
  1.2963424e+00   5.2567226e-09
  1.0278384e-01   2.9330762e-09
 -1.6917930e-03   5.3602622e-07
  5.0205332e-01   1.5019342e-07
  1.4265900e-04   2.8609193e-07
  4.5439386e-04   1.8121484e-07
 -5.9255403e-01   1.1544294e-07
 -1.7503720e-05   7.4741655e-07
  1.1700875e-03   2.5065816e-07
  1.1812313e-05   1.6705488e-07
 -9.5996002e-06   3.6800113e-08
  3.0674739e-06   1.6852496e-07
 -2.9858847e-03   7.4655775e-09
 -8.8271563e-06   2.6833706e-07
  1.5773616e-05   4.2483947e-07
 -1.1194102e-02   8.5222467e-08
  1.2744675e-05   6.6844978e-09
 -2.5280888e-06   8.4305199e-08
 -1.6648066e-01   1.8601119e-07
  9.8725923e-06   9.7138958e-08
 -1.3829099e-06   5.9330029e-07
  2.0552868e-01   5.0522342e-08
 -3.8238209e-06   8.9037592e-08
  4.2340835e-06   1.0057278e-06
 -4.3512205e-06   1.8271369e-07
  1.6954094e-05   1.8729764e-07
  2.5772135e-05   1.0551847e-08
  1.0936314e-05   1.1064794e-07
  7.5252436e-02   4.4040564e-07
  1.4249006e-05   5.0461711e-07
  2.6134297e-01   7.4886586e-08
  1.4020376e-05   2.0243391e-07
 -5.6625584e-05   4.9442197e-09
 -7.9022766e-06   3.0890226e-07
  4.6587258e-05   7.4495665e-07
  1.1053510e-05   8.1217678e-08
  1.3932821e-04   1.9931557e-08
  1.5319012e-05   9.2272592e-07
  1.1036273e-05   5.9622613e-07
  7.6461062e-02   9.5450332e-08
  1.8204305e-01   8.2456626e-07
 -1.0582339e-05   1.0488221e-06
 -5.1552756e-06   1.6057491e-07
  2.3197774e-05   1.3895875e-07
 -1.2407375e-05   1.3072570e-06
  4.5332559e-08   1.2073059e-07
 -3.0849787e-06   8.8086345e-08
  8.6692526e-06   2.1007709e-06
  9.7671937e-06   2.5085612e-06
  5.6606737e-06   4.5563820e-07
  2.1971799e-05   4.2350189e-06
 -3.6710264e-06   3.9207119e-08
  4.1700838e-05   6.5765192e-07
  1.4735224e-05   3.9480591e-07
 -7.0992342e-06   2.1689641e-07
 -4.9761079e-06   3.5897862e-08
  1.1191334e-05   3.8739378e-07
 -2.3666635e-06   2.5151513e-07
 -1.1449663e-05   8.5364377e-07
 -2.1077129e-05   1.7324679e-06
 -3.8534821e-05   7.1043439e-07
 -5.5238820e-07   1.3849008e-06
 -1.1701965e-05   1.0029660e-06
 -2.8544632e-06   7.9139500e-07
 -1.1691744e-05   4.4798003e-07
 -1.2607608e-05   4.7824592e-08
  8.6743512e-06   4.4327648e-09
  1.5735775e-05   2.5210580e-08
 -9.6050953e-06   1.3896934e-06
  1.4483942e-06   1.5469199e-06
  2.9779083e-06   1.1230681e-08
  1.1214415e-05   2.5720220e-07
 -1.7361646e-05   8.8825773e-09
  1.6859797e-06   2.1101351e-07
  1.3145705e-05   9.2476160e-09
  1.0235345e-06   8.8584073e-09
  2.3631834e-05   3.1283439e-06
 -3.7257527e-05   4.3172683e-08
 -1.3015997e-06   2.8180068e-07
  1.0827019e-05   5.8422523e-07
 -3.3835091e-05   9.5794462e-07
  3.7105990e-06   2.5230697e-06
 -8.5667034e-06   6.8324061e-07
  1.6480884e-05   8.9179292e-07
  4.5532352e-06   5.6594314e-07
  1.2407228e-05   1.3005135e-06
  9.3782182e-06   9.5779640e-08
 -2.6133970e-05   5.4670829e-07
 -1.4640961e-05   2.5352442e-08
 -8.3597643e-06   5.5291330e-06
 -3.8250123e-06   1.1308937e-06
  9.3734088e-06   3.9802730e-09
  2.9679477e-05   9.6173733e-07
 -4.2763437e-05   5.3157049e-07
 -1.8041281e-06   2.1215679e-07
 -1.5445234e-05   5.9795315e-07
 -3.9390725e-06   4.3918703e-07
  3.8734529e-06   1.0190146e-06
  2.6945032e-05   3.7272318e-06
 -8.6928012e-06   1.5459950e-06
  9.8126509e-07   1.2259031e-07
 -2.6614941e-06   1.8541245e-06
  1.9794164e-05   5.3232152e-06
  1.0000702e-05   2.0965908e-07
  1.8216135e-05   2.3749351e-07
  3.2956730e-06   3.5742751e-08
 -1.9035751e-05   5.5260972e-07
  1.3200386e-05   2.4219958e-06
  6.2811587e-06   1.0874432e-07
  1.1309968e-05   8.6337434e-07
 -2.9448951e-05   4.4885962e-07
  3.8635462e-05   2.7342997e-08
  3.0871241e-05   2.6964503e-07
 -8.5815263e-06   2.7544829e-07
 -3.9632118e-06   1.1984026e-06
  7.5098692e-06   3.1922525e-08
  1.8060246e-05   3.4296267e-08
 -3.8700573e-06   1.9222261e-07
  1.0785041e-05   2.9678208e-08
  3.1853269e-05   1.7718892e-07
 -1.6926224e-05   3.1956165e-06
  6.4151919e-08   9.6923463e-07
  3.6254711e-05   2.5151348e-06
 -1.6739152e-05   6.8468012e-07
  2.0495994e-05   9.0781562e-08
  2.9134479e-05   2.7942599e-07
  1.3992652e-06   2.1530168e-06
  8.7949093e-07   1.2650754e-06
  1.6612676e-05   2.8220836e-07
  5.3929466e-06   1.1878377e-07
 -9.7909715e-06   1.2401945e-07
  4.5447891e-06   2.2383813e-06
 -2.1348258e-05   2.2537795e-06
  6.7410242e-06   2.9830929e-07
 -2.0282167e-05   3.4492796e-06
 -2.5588895e-06   1.8384880e-07
  1.4833802e-04   1.3232228e-06
 -8.7852977e-06   5.2389328e-07
  1.7330520e-05   9.3208801e-09
 -2.8990627e-05   3.2223855e-07
 -1.2082751e-05   2.0898442e-06
 -1.7040851e-05   3.4097198e-07
 -3.3656834e-06   1.8791637e-07
  2.7016736e-06   1.8173725e-06
  1.2346130e-05   6.4187321e-07
  4.5644806e-06   3.3424615e-07
 -2.7567539e-05   2.6510054e-06
  4.9149020e-07   4.3896212e-06
  6.9313219e-06   2.7324293e-07
 -2.9027726e-05   4.5532669e-08
  4.4704539e-06   1.0800122e-06
  2.9148168e-05   3.5799528e-07
  1.8294229e-06   2.8142617e-06
  4.8566999e-05   9.6195571e-08
  3.4639495e-05   3.9346450e-08
  3.0571406e-05   1.2659346e-07
 -4.9169507e-06   1.0247460e-06
  2.0569864e-06   6.0568294e-07
 -7.4784883e-05   1.0554485e-07
  3.4939246e-06   1.5764534e-06
  1.3101977e-06   1.2424107e-07
 -4.2626048e-06   1.1465778e-06
  5.3770455e-06   5.0854283e-07
 -1.5961567e-06   8.3992347e-08
 -2.5130350e-06   1.6974028e-08
 -7.6271829e-07   2.9914042e-07
 -2.5156089e-05   6.8698993e-09
  2.3951994e-05   7.2392965e-07
  1.1694665e-05   1.6877738e-07
  1.3618674e-06   2.3061973e-06
  2.1759182e-05   1.9955403e-06
  8.6420596e-06   5.0014177e-07
  3.6850736e-06   5.4427716e-09
  1.3916580e-05   3.2049552e-06
 -5.0671897e-06   3.1457157e-07
 -4.7690747e-07   4.5860003e-07
  8.8644686e-07   2.3057096e-06
 -1.2558816e-05   7.3514244e-08
 -1.3639829e-05   5.0998284e-07
  3.1270789e-05   2.6318817e-06
 -1.3329060e-05   9.7935663e-07
 -1.5926248e-06   8.4705512e-08
  1.0187384e-05   1.6347664e-06
 -3.0629760e-06   6.4568304e-08
  1.1352085e-05   5.7635663e-07
 -9.3573899e-06   1.5266154e-06
  1.8892802e-05   3.1410393e-06
 -3.0564959e-05   1.0149288e-06
  4.5007127e-05   5.0738100e-07
 -4.5789848e-06   3.4329903e-06
 -1.6855618e-05   1.9273324e-07
 -3.4077459e-06   1.3669518e-06
  1.9445961e-05   1.8863306e-08
 -3.6813886e-05   4.9619428e-07
  1.8275171e-06   4.9819346e-07
  2.5976854e-04   5.7528302e-09
  1.7614572e-04   1.1326843e-08
  2.6238852e-06   1.7754674e-07
 -2.4117315e-07   3.2374155e-07
  1.2931110e-05   1.9154702e-07
 -1.0029230e-06   1.0021969e-06
 -3.2621992e-05   5.3389613e-06
 -1.8204231e-05   1.5645369e-08
 -5.1884936e-06   2.4546314e-06
  2.5779209e-05   3.6915353e-07
 -1.1075847e-06   9.0800533e-08
 -1.0185473e-05   4.3093492e-06
  8.7402050e-06   3.5435952e-09
 -2.6064778e-05   1.7278652e-06
  5.5932540e-01   6.1998966e-09
  5.6725770e-01   8.3518730e-09
 -1.1713921e-01   1.7767101e-07
 -2.9473746e-01   2.2413175e-07
 -1.2215286e-01   7.9951263e-08
  2.2847423e-01   7.0177371e-09
  5.6005621e-01   4.6659650e-07
  1.1117885e+00   3.3351238e-08
  3.3248439e-01   3.6190698e-08
  7.9056390e-06   2.7827193e-08
  3.5077968e-01   1.0968065e-07
 -1.2470523e-01   1.2640147e-07
 -9.7078994e-02   8.8701505e-08
  8.5808568e-02   1.3062743e-07
 -1.3191582e-01   2.4545425e-08
 -1.4080639e-01   1.0889035e-08
 -1.4992814e-01   2.5577705e-07
 -4.8964080e-01   2.0058648e-07
 -9.8528199e-06   2.1532794e-07