160
Lattice="24.937723 0.0 0.0 0.0 6.17424 0.0 -2.781848 0.0 11.431269" Properties=species:S:1:pos:R:3:force:R:3 Energy=-609.044663 Virial="-28.51219 8.40703 -0.67111 8.40703 -31.43244 0.05006 -0.67111 0.05006 -33.42676" pbc="T T T"
Ga      -0.00311000       5.84296000       4.56714000       1.42925100       3.45940200       0.47622500
Ga      12.56730000       6.13973000       4.67321000      -0.89061100       0.63955800      -4.89928300
Ga      -0.27460000       2.82367000       4.50442000       1.50012100      -0.14822400       0.43002500
Ga      12.36945000       3.21788000       4.28662000       0.11854200      -3.28371800       1.42725900
Ga      -1.29853000       0.05665000      10.26335000      -0.80453500      -0.32406500      -0.08266400
Ga      11.20014000       5.92899000      10.08764000      -1.48530800       2.59417200       2.00390800
Ga      -1.13763000       3.06234000      10.44745000      -0.48662000       0.76279400      -1.23854600
Ga      10.81018000       3.11792000      10.22762000       0.82988700      -0.68418000      -0.23646500
Ga      11.05010000       0.10590000       1.12774000       1.23976200       0.18692900       0.02934800
Ga      23.73040000       6.15345000       1.36499000      -1.03836200      -1.22975200      -0.77786100
Ga      10.86003000       3.34673000       1.22564000       3.18158400      -1.53871800      -1.47477600
Ga      23.38818000       2.94002000       1.09966000      -0.16464400       1.08212300      -0.57405200
Ga       9.55200000       5.97956000       6.83117000      -0.15159000       1.65835900       1.97417800
Ga      21.98397000       0.09240000       6.65671000       1.68504500      -0.28821500       5.18045500
Ga       9.65287000       3.02168000       6.86691000      -0.44593800      -0.52817200      -0.00798000
Ga      22.21776000       3.14843000       6.93310000       0.27966500       0.36192400      -0.90762000
Ga       6.26746000       1.53233000       4.42147000       0.21289400      -0.80378600       1.69896500
Ga      18.66406000       1.40976000       4.73699000       0.17995700       0.57631200      -1.85275900
Ga       6.29525000       4.51649000       4.60873000      -0.42032000       2.32707600       0.71113700
Ga      18.74642000       4.59818000       4.46198000      -0.24359400      -0.21984200      -0.06373900
Ga       4.71854000       1.83519000      10.23320000       1.68264600      -0.50087300       0.78203900
Ga      17.32847000       1.57417000      10.31842000       1.88588200       2.94455400       0.26735700
Ga       4.87687000       4.96408000      10.35460000       1.51547800      -2.37715800       0.73819800
Ga      17.25022000       4.60724000      10.28194000      -0.37046900       0.07114300      -0.00821200
Ga       4.85447000       1.38974000       1.23763000      -1.29230100       1.87119700       0.17672100
Ga      17.14653000       1.55484000       1.17485000       1.50210500       0.93251100      -1.30634400
Ga       4.87652000       4.46182000       1.13481000      -1.23350700      -1.22780700       1.26659200
Ga      17.31183000       4.60709000       1.18394000       0.88322000       0.99350400      -1.29399800
Ga       3.44985000       1.46395000       6.81153000       0.59465700       0.45986400       0.27999700
Ga      15.80727000       1.58148000       6.85159000      -0.10171700       0.71047000       0.41871500
Ga       3.60038000       4.59672000       7.10462000      -0.26373900       2.58165000      -1.21885800
Ga      16.00319000       4.61994000       6.82189000       0.52625800      -0.09034600       1.10212300
Ga       1.52129000       1.51610000       1.87792000       1.56331700       0.24152300      -0.04376500
Ga      13.98081000       1.47070000       1.73432000      -0.49334900       0.77470600       0.22772400
Ga       1.44954000       4.59415000       1.82610000       0.84819300      -0.24599300       0.33906300
Ga      14.07070000       4.59909000       1.75109000      -0.41108500      -1.05383000       0.34002500
Ga       0.15137000       1.72702000       7.53321000       0.20526400      -1.33943300       0.90682900
Ga      12.46376000       1.75890000       7.53910000      -0.67538400      -0.22838900      -1.03138000
Ga       0.12098000       4.89770000       7.45653000       0.05558800      -1.66529400       0.96820500
Ga      12.62596000       4.80934000       7.41525000      -0.67938200      -1.12364900      -0.33137000
Ga       9.66161000       1.33660000       4.04524000      -0.14864600       1.48697100       0.47842200
Ga      21.87149000       1.48936000       3.87221000      -0.69652600       0.10271300      -0.33047500
Ga       9.65304000       4.65556000       3.96491000      -0.84059000       0.19615000       0.83662000
Ga      22.04060000       4.62091000       3.86174000      -1.77740000      -0.47596400      -0.48303200
Ga       8.16648000       1.64808000       9.62585000      -1.28702800      -1.25015800      -0.73620800
Ga      20.70594000       1.42759000       9.71544000       0.69864100      -0.37322100      -0.26452700
Ga       8.11446000       4.60100000       9.61991000      -1.53885700       0.48629300      -0.85879400
Ga      20.99990000       4.59864000       9.57276000       0.81227300       0.50485400      -0.30111200
Ga       7.75428000       6.03815000       1.86533000       0.96581200       1.31547500       0.50039100
Ga      20.19540000       6.09156000       1.78574000      -0.59999500       0.56455200       0.07957200
Ga       8.02250000       3.07215000       1.95768000      -1.86624400      -2.31502500       1.05029500
Ga      20.15552000       3.03591000       1.65989000       0.00413300      -0.72098400       1.73158500
Ga       6.45794000       0.05961000       7.70399000      -0.72447300       0.52766100      -1.68648800
Ga      18.63547000       0.06440000       7.74246000       1.40223500      -1.09966100      -0.32579800
Ga       6.33238000       3.05563000       7.34240000      -0.08105200      -0.80579500       1.31256100
Ga      18.87929000       3.12592000       7.49446000       0.44339100      -0.18196400      -0.08309800
Ga       3.29054000       6.10621000       3.94409000       0.50433800       1.34448300      -0.61080300
Ga      15.85358000       6.09258000       4.04780000      -1.55933800       2.19197800      -1.66100900
Ga       3.14669000       3.26153000       4.10636000       0.74918000      -0.24949600      -0.41343200
Ga      15.91361000       3.11313000       3.88154000      -1.05558600      -1.45686100      -0.26206900
Ga       2.01663000       0.04232000       9.53663000      -1.02520800       0.93167600       0.61571600
Ga      14.48421000       0.22035000       9.71170000      -0.63567200      -0.38971300      -0.01737900
Ga       1.88173000       3.21267000       9.73750000      -0.53019000      -0.80620000      -0.44865200
Ga      14.35710000       3.24816000       9.45634000      -0.77463200      -0.59218900       1.14572500
O        1.79527000       6.06926000       0.64137000      -0.51247300       0.86134100       0.34209100
O       14.18127000       6.07048000       0.58606000       0.86913100       0.59736000      -1.43378600
O        2.08535000       3.15495000       0.73790000      -0.45087300      -1.22499600       0.51455200
O       14.37416000       3.13536000       0.42749000      -0.10187500      -0.27528200       0.90825400
O        0.57871000       0.14480000       6.34467000      -0.46858400      -0.63309600      -1.26341200
O       12.88581000       0.19244000       6.30410000       0.96580400      -0.49435900       3.55705500
O        0.54148000       3.04075000       6.35556000      -0.79386100       1.96713900      -2.39743600
O       12.58829000       3.19932000       6.20823000       1.00063700      -0.00432200      -0.09553200
O        8.99835000       6.11909000       5.20799000       0.28917200       0.10170800      -3.02440700
O       21.52726000       6.08811000       5.05322000      -0.52956800      -0.14789000      -3.21111700
O        9.46005000       3.15058000       5.04548000      -0.36075600      -1.33481900       0.10637600
O       21.74827000       3.06735000       5.07369000      -0.08044900      -0.25916900      -0.10710800
O        7.62466000       6.02396000      10.72058000       0.87487000       2.09597700       2.13345100
O       20.82791000       6.03841000      10.89569000      -1.03592900       0.63662400      -0.33065200
O        7.99015000       3.12104000      10.79774000      -0.68270500       0.31939400       0.81708600
O       20.26768000       3.11772000      10.44722000       0.11157500      -0.28087800       3.73216400
O        8.17123000       1.59950000       0.73754000      -0.91936100      -1.46437600      -1.63729500
O       20.73010000       1.49238000       0.64442000      -0.28787100       0.41476800      -0.29917700
O        8.26575000       4.45201000       0.81435000      -0.36225600       2.79761400      -1.81231600
O       20.59399000       4.52289000       0.68094000      -0.18639500       1.02819700      -2.79992600
O        6.81070000       1.64329000       6.29011000      -0.32047100      -1.35005200      -0.92368100
O       19.23941000       1.28967000       6.41186000       0.42840000       1.17718800       1.12266900
O        6.64798000       4.53764000       6.40257000       0.43337700       1.88284800      -0.39778600
O       19.08641000       4.51216000       6.24421000       0.27306700       1.26653700       0.10611700
O        2.92601000       1.66944000       5.03080000       0.21692500      -0.79426500       0.86472200
O       15.68694000       1.54085000       5.04340000      -0.99450900      -0.02913600      -0.22002300
O        3.04255000       4.82087000       5.28625000      -0.68470000      -1.46299000       0.46876600
O       15.48309000       4.65390000       5.06848000      -0.06275800      -1.36347200       0.35251700
O        1.62861000       1.49765000      10.82877000       0.34902200       0.54433200      -0.05283000
O       14.06947000       1.70776000      10.74189000      -0.22875300       0.20968400       0.53910300
O        1.26462000       4.62470000      10.90933000       1.36573000      -0.01632200      -0.25971500
O       14.24775000       4.75566000      10.75201000      -0.37864600      -0.01010900      -0.73471400
O        1.36958000       6.11629000       3.28785000      -1.19760400      -0.60661900       0.10481300
O       13.90144000       5.98340000       3.26799000       1.00810900       0.44461000       0.18378700
O        1.26833000       3.10699000       3.20918000      -0.41255300      -0.49505200       1.25520400
O       13.86004000       2.91417000       3.25940000       0.89296100       0.65950200      -0.63722800
O        0.07634000       0.01525000       9.00347000       0.12621200       0.42520600      -1.02550600
O       12.50046000       0.22474000       8.95000000       0.30585700      -1.22166200      -0.56673200
O       -0.01957000       3.02035000       8.96075000       1.34084300       0.30642400      -0.01226700
O       12.44888000       3.26850000       8.87209000      -1.34664700      -0.05187300       0.46147900
O        9.81004000       6.17173000       2.59662000      -0.96247500      -1.09442800      -1.32413300
O       22.08333000       6.09864000       2.39701000       1.39801700      -0.08715500       0.27173800
O        9.83303000       2.78766000       2.52704000      -0.83780100       1.89196400       0.48564100
O       22.04881000       3.07587000       2.52538000       0.57380300      -0.72454400      -1.09830500
O        8.25418000       0.09572000       8.09079000       0.24418800      -0.10934700       1.57280200
O       20.82900000       6.16528000       8.27265000       0.09333400       0.17313700      -0.38071100
O        8.16907000       3.18724000       8.18394000       1.46725800      -0.37184600      -0.15657800
O       20.80508000       3.37838000       8.04774000      -0.63519100      -0.82100000       0.04694900
O        7.87039000       1.63941000       3.41304000      -2.35620600      -0.65032100      -0.88948100
O       19.94732000       1.21965000       3.24724000       0.82591900       1.72787300       0.62693300
O        7.75458000       4.70581000       3.51301000      -0.35450300      -0.21396200      -2.71665700
O       20.01033000       4.62586000       3.07809000       0.07401600      -0.68917000       1.19654900
O        6.13548000       1.76892000       8.89141000       0.22158900      -0.42159100       1.30601400
O       18.85482000       1.54641000       9.08033000      -1.55012400      -0.44360100      -0.51236600
O        6.17258000       4.89788000       9.04528000       0.01272200      -1.31457300       0.20049300
O       18.27166000       4.56221000       8.72800000       0.97316800       0.91784400       0.73186500
O        3.34031000       1.26164000       2.47181000       1.30993000       0.75296000      -0.75739500
O       15.89394000       1.48847000       2.41043000      -1.29455700      -0.43947400       0.88929900
O        3.45678000       4.51930000       2.64724000       0.08988700       0.13151300      -0.66335500
O       15.93995000       4.25250000       2.30068000      -0.43937800       1.33416900       1.09818700
O        2.11583000       1.62191000       8.15714000       0.12323100      -0.64006300       0.42003400
O       14.35164000       1.55220000       8.08269000       1.94092900       0.37707500       0.16195000
O        2.19769000       4.69091000       8.34986000      -0.82903800       0.07385900      -0.46708900
O       14.48778000       4.50601000       7.99648000       1.13608000       0.96881600      -0.25252600
O       12.08425000       1.67056000       1.47508000      -0.75809600      -0.60016600      -0.71655100
O       -0.30324000       1.57565000       1.44063000      -1.30888700       0.09981400      -0.51589400
O       12.18665000       4.63133000       1.43923000      -2.26932200       0.79312400      -0.71876500
O       24.44419000       4.41907000       1.50242000       0.16937200       0.88155600       0.09787000
O       10.51491000       1.36801000       7.08295000       1.08368600       1.67902700       0.80249900
O       23.18419000       1.57942000       6.99530000      -0.77370800      -0.68553100       0.09905100
O       10.63273000       4.59814000       6.88040000       1.43778300      -0.42102500       1.44178300
O       23.20342000       4.71492000       7.10445000      -0.66277000       0.85158000      -0.70843500
O       23.80409000       1.24710000       3.88002000       1.11953500       0.38231100       1.72666600
O       11.52461000       1.41931000       4.10367000       0.95113100       0.87678300       0.83364300
O       23.86747000       4.51084000       4.23736000      -0.03845000      -1.48817200      -0.04735000
O       11.51798000       4.73616000       3.96970000       0.21469100       0.74546900       0.63473800
O       -2.31790000       1.72882000       9.96462000       0.66315800      -1.81495000       0.05288800
O        9.96430000       1.51143000      10.01394000       1.61178300      -0.97940500      -0.45216700
O       -2.00811000       4.54867000       9.73162000      -1.09472100       0.87531000       0.87389600
O        9.96739000       4.68768000       9.57996000       1.83764600      -0.68035400       0.66386100
O        5.76420000       6.03486000       1.34871000       2.35692400      -0.65621100       0.65043300
O       18.25709000       0.10102000       1.16735000       0.45239800      -1.37833100       0.85444500
O        5.89401000       2.95493000       1.70255000      -0.76643500       0.11444900      -0.94972000
O       18.25930000       3.10359000       1.66071000      -0.05576800      -0.97831600      -0.88171300
O        4.68575000       0.02437000       7.12050000      -2.85647300       0.11026300      -0.17726900
O       16.85886000       0.12271000       7.16434000      -0.95780000      -1.28016000      -0.12011700
O        4.36270000       3.06823000       7.35936000       0.80114700      -2.06607700      -0.24372700
O       17.00309000       3.03683000       7.02370000      -1.56622400      -0.24234100       0.50822000
O        5.15599000       6.14168000       4.34886000       2.24621300       0.24629900      -0.56750700
O       17.69722000       0.03647000       4.02422000       0.57942300      -2.11764700       0.28724000
O        5.32354000       3.08828000       4.29451000      -1.81875000      -0.93129200      -0.24926500
O       17.76012000       2.98169000       4.39103000       0.21982100       0.90808200      -0.74320700
O        3.95115000       0.17651000       9.78493000      -1.16971400       1.25893500       0.70934700
O       16.44056000       0.17391000      10.00841000      -1.88666100      -3.86637400      -1.10692000
O        3.78271000       3.40030000      10.18563000       0.07106700       0.05779700       0.04288300
O       16.19032000       3.04483000       9.99636000       1.78568000       0.49780700       0.13830200
160
Lattice="24.937723 0.0 0.0 0.0 6.17424 0.0 -2.781848 0.0 11.431269" Properties=species:S:1:pos:R:3:force:R:3 Energy=-617.9774 Virial="-15.44952 1.85942 0.67947 1.85942 -30.60665 -1.79402 0.67947 -1.79402 -36.48229" pbc="T T T"
Ga       0.25082000       0.07144000       4.54830000      -2.05472000       0.17106500       0.88802200
Ga      12.40722000       5.97193000       4.44717000       1.33705300       0.59912300       0.26646600
Ga       0.11706000       3.21340000       4.58500000      -0.37076600      -0.78478200       0.79038800
Ga      12.24800000       2.98757000       4.51199000       0.95595100      -2.26881700       0.35960600
Ga      -1.21021000       0.06060000      10.29380000      -1.42439700      -0.11593800       0.76643700
Ga      10.98490000       0.09656000      10.24519000       0.62351300       0.66326000      -0.39300500
Ga      -1.37717000       3.07844000      10.36017000      -0.29773400       0.67480400       0.00655900
Ga      11.05391000       3.11976000      10.20818000       0.37526700       0.99030600       0.23578800
Ga      11.14222000       0.04838000       1.05289000      -0.77274900      -1.79830900       1.21790700
Ga      23.56260000       0.02441000       1.13680000       1.45588800       0.17331400       1.91093400
Ga      11.06035000       3.13426000       1.14646000       0.85299500       0.84699400       0.03438000
Ga      23.64500000       3.17599000       1.16025000       0.80906300      -0.92570800      -0.48721100
Ga       9.52295000       6.11213000       6.74758000       0.01696500      -0.11160000       2.60712400
Ga      22.32466000       0.07660000       6.99188000      -1.40940100      -0.34473800      -0.22205200
Ga       9.62719000       2.99334000       6.89721000      -0.13194100       0.67484400       0.24987400
Ga      22.22029000       3.15204000       6.87929000      -0.12123300       0.80023500       0.41529400
Ga       6.23905000       1.38743000       4.44690000      -0.18860000       2.00229200       1.72167000
Ga      18.68256000       1.47623000       4.66829000       0.34642300      -0.09639300      -1.31879000
Ga       6.28432000       4.55308000       4.45801000      -0.72348300      -0.62971700       0.81220000
Ga      18.60390000       4.52719000       4.61320000       0.67672300      -0.84263600      -0.67846400
Ga       4.89302000       1.66153000      10.28608000       0.72883000       1.67539800       0.08818000
Ga      17.24914000       1.63734000      10.32109000      -0.53723000       0.35849500      -0.40829100
Ga       4.87044000       4.86533000      10.37253000       1.28225600      -2.58280000      -0.47168700
Ga      17.21731000       4.76784000      10.17064000      -0.48634100      -0.19512600       0.06021600
Ga       4.94845000       1.51281000       1.26204000       0.12000200      -0.16978900      -1.02871300
Ga      17.24016000       1.52482000       1.19698000      -1.12596200      -0.95288900      -1.57851700
Ga       4.82909000       4.61494000       1.21030000       1.33004900      -0.14182100       0.70590200
Ga      17.37161000       4.53251000       1.20263000      -0.80092600       0.58327400      -2.33543400
Ga       3.48043000       1.55060000       6.84760000       0.70029300       0.10573400      -0.38288900
Ga      15.93900000       1.54927000       6.85323000      -1.41973700       0.44000000       0.24345100
Ga       3.61471000       4.59946000       6.87433000      -0.94265700       0.06777600       0.32300900
Ga      15.79361000       4.66884000       6.92529000       1.44483800      -0.34069000      -1.12205100
Ga       1.51644000       1.46649000       1.81070000       0.88318000       1.14527700       0.86176700
Ga      13.81544000       1.66119000       1.69073000       1.05642400      -1.19224000       0.29843100
Ga       1.68665000       4.66695000       1.75271000      -1.20414300      -1.10713900       0.30994500
Ga      13.92173000       4.59980000       1.88887000       0.87750200       0.81742100      -1.36274200
Ga       0.21192000       1.54576000       7.59052000       0.71249100       0.40759200       0.16990300
Ga      12.45032000       1.44030000       7.40257000       0.83688400      -1.55455500       1.45367900
Ga       0.10398000       4.74560000       7.61410000       2.61319300      -1.29097600      -0.01446100
Ga      12.51989000       4.52269000       7.41076000      -0.84909300       0.54413200       1.11960100
Ga       9.54192000       1.52247000       3.83480000       0.45232200      -0.02047600       0.56857100
Ga      22.24447000       1.58672000       3.90031000      -0.81164700       0.41664800      -0.17290000
Ga       9.56770000       4.65485000       3.86246000      -0.69550500      -0.44486300       0.15183800
Ga      22.15758000       4.73578000       3.92810000      -1.02894500      -0.07809300       0.24141100
Ga       8.12829000       1.64826000       9.57130000       0.06623400      -0.97053700      -0.46653500
Ga      20.66625000       1.57506000       9.54538000       0.03462600      -0.27681800       0.52366200
Ga       8.13292000       4.65381000       9.66446000       0.25504000       0.70242200      -0.90060400
Ga      20.66496000       4.66873000       9.62252000       0.54197200       0.69631600      -0.08686200
Ga       7.85427000       0.04750000       1.85734000       0.15696200       0.16952300      -0.51998600
Ga      20.15898000       6.06343000       1.93670000      -0.32525300       0.21122600      -0.72602700
Ga       7.81903000       3.11060000       1.74944000      -0.14116000       0.82591000       0.33031300
Ga      20.16406000       2.94604000       1.85797000       0.23930500       0.86325600       0.05364300
Ga       6.31726000       6.14307000       7.38475000       1.33551100      -0.39793000       0.45139100
Ga      18.72762000       6.14599000       7.55201000       0.48628700      -0.47847400       0.27949000
Ga       6.26860000       2.98857000       7.65588000       1.89146600       0.66068200      -0.74479300
Ga      18.67074000       3.08260000       7.55101000       1.41971300       1.24908900       0.85511900
Ga       3.36398000       0.02370000       3.79450000       0.33485300      -0.57271900       1.10767400
Ga      15.77485000       0.01663000       3.78568000      -0.44804600      -0.23849200       0.77888400
Ga       3.34308000       3.07773000       3.95996000       0.93610300      -1.12807000      -0.07599400
Ga      15.62476000       3.05132000       3.84313000       0.91178400       0.24724900       1.02461200
Ga       2.06186000       6.14637000       9.66649000       0.09978700       0.61368400       0.20834500
Ga      14.33731000       6.09188000       9.58228000      -1.95492600       0.80454500       0.10702900
Ga       1.89143000       3.11389000       9.67180000       2.15175500      -0.80015200       0.26122100
Ga      14.33513000       2.99066000       9.49275000      -0.17041500       0.42853500       0.74888300
O        1.87980000       0.00450000       0.70048000       0.89185600       0.31815300      -0.88004400
O       14.24678000       0.18028000       0.59210000      -0.18346000      -0.73151200       0.40502400
O        1.78367000       3.06835000       0.78288000       0.58021900      -0.05594700      -0.90092500
O       14.15425000       3.09769000       0.57824000       0.36062400       0.93670200       1.13538200
O        0.51012000       6.17129000       6.39831000      -0.06106000       0.43103600      -0.07231900
O       12.79502000       6.01948000       6.24412000      -0.24174200       0.00907000       0.21399900
O        0.33940000       3.06104000       6.48138000       0.49199300       1.40216800      -0.63525600
O       12.65702000       2.92210000       6.32852000       0.21448100       1.39295000      -0.74686500
O        8.97039000       6.13849000       5.10405000       0.18207900      -0.18842500      -2.96460100
O       21.79660000       0.24476000       5.19118000       0.11639300      -1.31510500      -0.23217800
O        9.48632000       3.06758000       5.03196000      -0.63950900      -0.27993200       0.18831700
O       21.78848000       3.19304000       5.06263000       0.30568400      -0.10639300       0.22332600
O        7.90097000       0.11815000      10.76466000      -0.59523000      -0.94009600      -0.55339100
O       20.47597000       0.04959000      10.87438000      -1.01064100      -0.16487500      -2.95206000
O        7.94604000       3.11104000      10.82214000      -0.88303700       0.78553300      -0.64386900
O       20.59051000       3.12605000      10.70522000      -0.57495100      -0.16214400       1.47261500
O        8.21599000       1.69414000       0.63682000      -0.15076000      -1.21911100      -0.22265800
O       20.41763000       1.49019000       0.68527000       0.55726300      -0.55261800      -0.23624400
O        8.28427000       4.77558000       0.68574000      -0.33764300      -0.59278100      -0.33869700
O       20.33871000       4.56494000       0.54097000       0.56455600       0.36718800       1.64573100
O        6.67546000       1.53970000       6.30472000      -0.10005100      -0.27661900      -0.34500100
O       18.87207000       1.57259000       6.49221000       0.78715400      -0.69768200      -0.87702700
O        6.56770000       4.51377000       6.27565000       0.39950700       0.55599900       0.76063400
O       19.10901000       4.62161000       6.33626000      -0.27866100      -0.18702700       1.04921600
O        3.07558000       1.44883000       5.05303000      -0.51864100       0.16923100       0.21537600
O       15.39771000       1.57384000       5.08463000       0.60735100      -0.66755800      -0.22126600
O        3.21515000       4.49076000       5.10453000      -1.16492000       1.41285000       0.32309400
O       15.41239000       4.59850000       5.13220000       0.58199900       0.03566200      -1.39143000
O        1.66733000       1.51338000      10.90901000       0.26218100      -0.16074400      -0.93104500
O       14.10612000       1.60087000      10.74068000      -0.30922600      -1.03453900       1.16976900
O        1.67205000       4.52405000      10.90104000      -0.30811000       1.56449100      -0.94317600
O       14.01635000       4.56148000      10.70403000       0.59765400       0.22068000       1.00108200
O        1.39875000       5.90922000       3.20728000       1.34911800       1.42783500       0.35544600
O       13.85845000       6.00968000       3.26065000       0.02218700       0.44336400       0.06741300
O        1.52539000       2.89640000       3.44036000      -0.60049000       0.34821600      -1.06601000
O       13.76590000       2.99451000       3.33459000      -0.53120100       0.36278600      -0.95660300
O        0.16054000       0.13823000       9.12757000       0.25711500      -0.48523200      -1.69523100
O       12.36577000       0.02882000       8.92845000       0.12945100      -0.03748300      -0.30792700
O        0.09914000       3.09561000       9.17616000      -0.86542800       0.07896600      -1.19845300
O       12.45007000       3.08654000       9.02145000      -0.23667500       0.09549500      -1.75374100
O        9.73384000       0.02469000       2.50643000      -0.06603600      -0.32138800      -0.24792100
O       22.29476000       6.06905000       2.47616000      -1.42773400       0.38259400       0.81875800
O        9.83666000       3.01293000       2.45369000      -1.93507900       0.41835400       0.90054100
O       22.27722000       2.95518000       2.38767000      -1.03721300       0.37508400       0.78798400
O        8.27824000       0.06736000       8.16674000      -0.94074300      -0.43740800       0.14302100
O       20.68040000       6.11530000       8.15360000       1.46669100       1.27791700       0.07563200
O        8.22409000       3.09516000       8.19461000      -0.00810000      -0.06586000      -0.13293700
O       20.83058000       3.36616000       8.16253000       0.18897600      -2.06310000      -0.70804100
O        7.60719000       1.51052000       3.22532000       0.67516300      -0.09681900      -0.58414800
O       20.03626000       1.49360000       3.24927000       0.63324700      -0.21940700       0.51505900
O        7.67389000       4.47058000       3.20285000       0.08258900       0.65822600       0.03852000
O       20.03704000       4.60465000       3.34311000       1.16011100       0.02409200      -1.08767700
O        6.21689000       1.45983000       8.95379000      -0.11042600       0.50644500       0.16271900
O       18.75079000       1.54242000       9.07009000      -0.65989600       0.24387300      -0.05821200
O        6.17771000       4.55982000       8.99888000       0.67666900       0.78437000       0.00637900
O       18.72722000       4.59792000       8.93824000      -1.21617400       0.57416600       0.73395100
O        3.59421000       1.54459000       2.48322000      -1.47906000      -0.65869800       0.40838800