# LAMMPS data file written by OVITO Basic 3.9.4

8000 atoms
2 atom types

0.0 48.19254 xlo xhi
0.0 48.19254 ylo yhi
0.0 48.19254 zlo zhi

Masses

1 10.811  # B3+
2 74.9216  # As3-

Atoms  # atomic

1 1 1.2048135 1.2048135 1.2048135
2 1 1.2048135 3.6144405 3.6144405
3 1 3.6144405 3.6144405 1.2048135
4 1 3.6144405 1.2048135 3.6144405
5 2 3.5527136788e-15 3.5527136788e-15 3.5527136788e-15
6 2 3.5527136788e-15 2.409627 2.409627
7 2 2.409627 3.5527136788e-15 2.409627
8 2 2.409627 2.409627 3.5527136788e-15
9 1 1.2048135 1.2048135 6.0240675
10 1 1.2048135 3.6144405 8.4336945
11 1 3.6144405 3.6144405 6.0240675
12 1 3.6144405 1.2048135 8.4336945
13 2 3.5527136788e-15 3.5527136788e-15 4.819254
14 2 3.5527136788e-15 2.409627 7.228881
15 2 2.409627 3.5527136788e-15 7.228881
16 2 2.409627 2.409627 4.819254
17 1 1.2048135 1.2048135 10.8433215
18 1 1.2048135 3.6144405 13.2529485
19 1 3.6144405 3.6144405 10.8433215
20 1 3.6144405 1.2048135 13.2529485
21 2 3.5527136788e-15 3.5527136788e-15 9.638508
22 2 3.5527136788e-15 2.409627 12.048135
23 2 2.409627 3.5527136788e-15 12.048135
24 2 2.409627 2.409627 9.638508
25 1 1.2048135 1.2048135 15.6625755
26 1 1.2048135 3.6144405 18.0722025
27 1 3.6144405 3.6144405 15.6625755
28 1 3.6144405 1.2048135 18.0722025
29 2 3.5527136788e-15 3.5527136788e-15 14.457762
30 2 3.5527136788e-15 2.409627 16.867389
31 2 2.409627 3.5527136788e-15 16.867389
32 2 2.409627 2.409627 14.457762
33 1 1.2048135 1.2048135 20.4818295
34 1 1.2048135 3.6144405 22.8914565
35 1 3.6144405 3.6144405 20.4818295
36 1 3.6144405 1.2048135 22.8914565
37 2 3.5527136788e-15 3.5527136788e-15 19.277016
38 2 3.5527136788e-15 2.409627 21.686643
39 2 2.409627 3.5527136788e-15 21.686643
40 2 2.409627 2.409627 19.277016
41 1 1.2048135 1.2048135 25.3010835
42 1 1.2048135 3.6144405 27.7107105
43 1 3.6144405 3.6144405 25.3010835
44 1 3.6144405 1.2048135 27.7107105
45 2 3.5527136788e-15 3.5527136788e-15 24.09627
46 2 3.5527136788e-15 2.409627 26.505897
47 2 2.409627 3.5527136788e-15 26.505897
48 2 2.409627 2.409627 24.09627
49 1 1.2048135 1.2048135 30.1203375
50 1 1.2048135 3.6144405 32.5299645
51 1 3.6144405 3.6144405 30.1203375
52 1 3.6144405 1.2048135 32.5299645
53 2 3.5527136788e-15 3.5527136788e-15 28.915524
54 2 3.5527136788e-15 2.409627 31.325151
55 2 2.409627 3.5527136788e-15 31.325151
56 2 2.409627 2.409627 28.915524
57 1 1.2048135 1.2048135 34.9395915
58 1 1.2048135 3.6144405 37.3492185
59 1 3.6144405 3.6144405 34.9395915
60 1 3.6144405 1.2048135 37.3492185
61 2 3.5527136788e-15 3.5527136788e-15 33.734778
62 2 3.5527136788e-15 2.409627 36.144405
63 2 2.409627 3.5527136788e-15 36.144405
64 2 2.409627 2.409627 33.734778
65 1 1.2048135 1.2048135 39.7588455
66 1 1.2048135 3.6144405 42.1684725
67 1 3.6144405 3.6144405 39.7588455
68 1 3.6144405 1.2048135 42.1684725
69 2 3.5527136788e-15 3.5527136788e-15 38.554032
70 2 3.5527136788e-15 2.409627 40.963659
71 2 2.409627 3.5527136788e-15 40.963659
72 2 2.409627 2.409627 38.554032
73 1 1.2048135 1.2048135 44.5780995
74 1 1.2048135 3.6144405 46.9877265
75 1 3.6144405 3.6144405 44.5780995
76 1 3.6144405 1.2048135 46.9877265
77 2 3.5527136788e-15 3.5527136788e-15 43.373286
78 2 3.5527136788e-15 2.409627 45.782913
79 2 2.409627 3.5527136788e-15 45.782913
80 2 2.409627 2.409627 43.373286
81 1 1.2048135 6.0240675 1.2048135
82 1 1.2048135 8.4336945 3.6144405
83 1 3.6144405 8.4336945 1.2048135
84 1 3.6144405 6.0240675 3.6144405
85 2 3.5527136788e-15 4.819254 3.5527136788e-15
86 2 3.5527136788e-15 7.228881 2.409627
87 2 2.409627 4.819254 2.409627
88 2 2.409627 7.228881 3.5527136788e-15
89 1 1.2048135 6.0240675 6.0240675
90 1 1.2048135 8.4336945 8.4336945
91 1 3.6144405 8.4336945 6.0240675
92 1 3.6144405 6.0240675 8.4336945
93 2 3.5527136788e-15 4.819254 4.819254
94 2 3.5527136788e-15 7.228881 7.228881
95 2 2.409627 4.819254 7.228881
96 2 2.409627 7.228881 4.819254
97 1 1.2048135 6.0240675 10.8433215
98 1 1.2048135 8.4336945 13.2529485
99 1 3.6144405 8.4336945 10.8433215
100 1 3.6144405 6.0240675 13.2529485
101 2 3.5527136788e-15 4.819254 9.638508
102 2 3.5527136788e-15 7.228881 12.048135
103 2 2.409627 4.819254 12.048135
104 2 2.409627 7.228881 9.638508
105 1 1.2048135 6.0240675 15.6625755
106 1 1.2048135 8.4336945 18.0722025
107 1 3.6144405 8.4336945 15.6625755
108 1 3.6144405 6.0240675 18.0722025
109 2 3.5527136788e-15 4.819254 14.457762
110 2 3.5527136788e-15 7.228881 16.867389
111 2 2.409627 4.819254 16.867389
112 2 2.409627 7.228881 14.457762
113 1 1.2048135 6.0240675 20.4818295
114 1 1.2048135 8.4336945 22.8914565
115 1 3.6144405 8.4336945 20.4818295
116 1 3.6144405 6.0240675 22.8914565
117 2 3.5527136788e-15 4.819254 19.277016
118 2 3.5527136788e-15 7.228881 21.686643
119 2 2.409627 4.819254 21.686643
120 2 2.409627 7.228881 19.277016
121 1 1.2048135 6.0240675 25.3010835
122 1 1.2048135 8.4336945 27.7107105
123 1 3.6144405 8.4336945 25.3010835
124 1 3.6144405 6.0240675 27.7107105
125 2 3.5527136788e-15 4.819254 24.09627
126 2 3.5527136788e-15 7.228881 26.505897
127 2 2.409627 4.819254 26.505897
128 2 2.409627 7.228881 24.09627
129 1 1.2048135 6.0240675 30.1203375
130 1 1.2048135 8.4336945 32.5299645
131 1 3.6144405 8.4336945 30.1203375
132 1 3.6144405 6.0240675 32.5299645
133 2 3.5527136788e-15 4.819254 28.915524
134 2 3.5527136788e-15 7.228881 31.325151
135 2 2.409627 4.819254 31.325151
136 2 2.409627 7.228881 28.915524
137 1 1.2048135 6.0240675 34.9395915
138 1 1.2048135 8.4336945 37.3492185
139 1 3.6144405 8.4336945 34.9395915
140 1 3.6144405 6.0240675 37.3492185
141 2 3.5527136788e-15 4.819254 33.734778
142 2 3.5527136788e-15 7.228881 36.144405
143 2 2.409627 4.819254 36.144405
144 2 2.409627 7.228881 33.734778
145 1 1.2048135 6.0240675 39.7588455
146 1 1.2048135 8.4336945 42.1684725
147 1 3.6144405 8.4336945 39.7588455
148 1 3.6144405 6.0240675 42.1684725
149 2 3.5527136788e-15 4.819254 38.554032
150 2 3.5527136788e-15 7.228881 40.963659
151 2 2.409627 4.819254 40.963659
152 2 2.409627 7.228881 38.554032
153 1 1.2048135 6.0240675 44.5780995
154 1 1.2048135 8.4336945 46.9877265
155 1 3.6144405 8.4336945 44.5780995
156 1 3.6144405 6.0240675 46.9877265
157 2 3.5527136788e-15 4.819254 43.373286
158 2 3.5527136788e-15 7.228881 45.782913
159 2 2.409627 4.819254 45.782913
160 2 2.409627 7.228881 43.373286
161 1 1.2048135 10.8433215 1.2048135
162 1 1.2048135 13.2529485 3.6144405
163 1 3.6144405 13.2529485 1.2048135
164 1 3.6144405 10.8433215 3.6144405
165 2 3.5527136788e-15 9.638508 3.5527136788e-15
166 2 3.5527136788e-15 12.048135 2.409627
167 2 2.409627 9.638508 2.409627
168 2 2.409627 12.048135 3.5527136788e-15
169 1 1.2048135 10.8433215 6.0240675
170 1 1.2048135 13.2529485 8.4336945
171 1 3.6144405 13.2529485 6.0240675
172 1 3.6144405 10.8433215 8.4336945
173 2 3.5527136788e-15 9.638508 4.819254
174 2 3.5527136788e-15 12.048135 7.228881
175 2 2.409627 9.638508 7.228881
176 2 2.409627 12.048135 4.819254
177 1 1.2048135 10.8433215 10.8433215
178 1 1.2048135 13.2529485 13.2529485
179 1 3.6144405 13.2529485 10.8433215
180 1 3.6144405 10.8433215 13.2529485
181 2 3.5527136788e-15 9.638508 9.638508
182 2 3.5527136788e-15 12.048135 12.048135
183 2 2.409627 9.638508 12.048135
184 2 2.409627 12.048135 9.638508
185 1 1.2048135 10.8433215 15.6625755
186 1 1.2048135 13.2529485 18.0722025
187 1 3.6144405 13.2529485 15.6625755
188 1 3.6144405 10.8433215 18.0722025
189 2 3.5527136788e-15 9.638508 14.457762
190 2 3.5527136788e-15 12.048135 16.867389
191 2 2.409627 9.638508 16.867389
192 2 2.409627 12.048135 14.457762
193 1 1.2048135 10.8433215 20.4818295
194 1 1.2048135 13.2529485 22.8914565
195 1 3.6144405 13.2529485 20.4818295
196 1 3.6144405 10.8433215 22.8914565
197 2 3.5527136788e-15 9.638508 19.277016
198 2 3.5527136788e-15 12.048135 21.686643
199 2 2.409627 9.638508 21.686643
200 2 2.409627 12.048135 19.277016
201 1 1.2048135 10.8433215 25.3010835
202 1 1.2048135 13.2529485 27.7107105
203 1 3.6144405 13.2529485 25.3010835
204 1 3.6144405 10.8433215 27.7107105
205 2 3.5527136788e-15 9.638508 24.09627
206 2 3.5527136788e-15 12.048135 26.505897
207 2 2.409627 9.638508 26.505897
208 2 2.409627 12.048135 24.09627
209 1 1.2048135 10.8433215 30.1203375
210 1 1.2048135 13.2529485 32.5299645
211 1 3.6144405 13.2529485 30.1203375
212 1 3.6144405 10.8433215 32.5299645
213 2 3.5527136788e-15 9.638508 28.915524
214 2 3.5527136788e-15 12.048135 31.325151
215 2 2.409627 9.638508 31.325151
216 2 2.409627 12.048135 28.915524
217 1 1.2048135 10.8433215 34.9395915
218 1 1.2048135 13.2529485 37.3492185
219 1 3.6144405 13.2529485 34.9395915
220 1 3.6144405 10.8433215 37.3492185
221 2 3.5527136788e-15 9.638508 33.734778
222 2 3.5527136788e-15 12.048135 36.144405
223 2 2.409627 9.638508 36.144405
224 2 2.409627 12.048135 33.734778
225 1 1.2048135 10.8433215 39.7588455
226 1 1.2048135 13.2529485 42.1684725
227 1 3.6144405 13.2529485 39.7588455
228 1 3.6144405 10.8433215 42.1684725
229 2 3.5527136788e-15 9.638508 38.554032
230 2 3.5527136788e-15 12.048135 40.963659
231 2 2.409627 9.638508 40.963659
232 2 2.409627 12.048135 38.554032
233 1 1.2048135 10.8433215 44.5780995
234 1 1.2048135 13.2529485 46.9877265
235 1 3.6144405 13.2529485 44.5780995
236 1 3.6144405 10.8433215 46.9877265
237 2 3.5527136788e-15 9.638508 43.373286
238 2 3.5527136788e-15 12.048135 45.782913
239 2 2.409627 9.638508 45.782913
240 2 2.409627 12.048135 43.373286
241 1 1.2048135 15.6625755 1.2048135
242 1 1.2048135 18.0722025 3.6144405
243 1 3.6144405 18.0722025 1.2048135
244 1 3.6144405 15.6625755 3.6144405
245 2 3.5527136788e-15 14.457762 3.5527136788e-15
246 2 3.5527136788e-15 16.867389 2.409627
247 2 2.409627 14.457762 2.409627
248 2 2.409627 16.867389 3.5527136788e-15
249 1 1.2048135 15.6625755 6.0240675
250 1 1.2048135 18.0722025 8.4336945
251 1 3.6144405 18.0722025 6.0240675
252 1 3.6144405 15.6625755 8.4336945
253 2 3.5527136788e-15 14.457762 4.819254
254 2 3.5527136788e-15 16.867389 7.228881
255 2 2.409627 14.457762 7.228881
256 2 2.409627 16.867389 4.819254
257 1 1.2048135 15.6625755 10.8433215
258 1 1.2048135 18.0722025 13.2529485
259 1 3.6144405 18.0722025 10.8433215
260 1 3.6144405 15.6625755 13.2529485
261 2 3.5527136788e-15 14.457762 9.638508
262 2 3.5527136788e-15 16.867389 12.048135
263 2 2.409627 14.457762 12.048135
264 2 2.409627 16.867389 9.638508
265 1 1.2048135 15.6625755 15.6625755
266 1 1.2048135 18.0722025 18.0722025
267 1 3.6144405 18.0722025 15.6625755
268 1 3.6144405 15.6625755 18.0722025
269 2 3.5527136788e-15 14.457762 14.457762
270 2 3.5527136788e-15 16.867389 16.867389
271 2 2.409627 14.457762 16.867389
272 2 2.409627 16.867389 14.457762
273 1 1.2048135 15.6625755 20.4818295
274 1 1.2048135 18.0722025 22.8914565
275 1 3.6144405 18.0722025 20.4818295
276 1 3.6144405 15.6625755 22.8914565
277 2 3.5527136788e-15 14.457762 19.277016
278 2 3.5527136788e-15 16.867389 21.686643
279 2 2.409627 14.457762 21.686643
280 2 2.409627 16.867389 19.277016
281 1 1.2048135 15.6625755 25.3010835
282 1 1.2048135 18.0722025 27.7107105
283 1 3.6144405 18.0722025 25.3010835
284 1 3.6144405 15.6625755 27.7107105
285 2 3.5527136788e-15 14.457762 24.09627
286 2 3.5527136788e-15 16.867389 26.505897
287 2 2.409627 14.457762 26.505897
288 2 2.409627 16.867389 24.09627
289 1 1.2048135 15.6625755 30.1203375
290 1 1.2048135 18.0722025 32.5299645
291 1 3.6144405 18.0722025 30.1203375
292 1 3.6144405 15.6625755 32.5299645
293 2 3.5527136788e-15 14.457762 28.915524
294 2 3.5527136788e-15 16.867389 31.325151
295 2 2.409627 14.457762 31.325151
296 2 2.409627 16.867389 28.915524
297 1 1.2048135 15.6625755 34.9395915
298 1 1.2048135 18.0722025 37.3492185
299 1 3.6144405 18.0722025 34.9395915
300 1 3.6144405 15.6625755 37.3492185
301 2 3.5527136788e-15 14.457762 33.734778
302 2 3.5527136788e-15 16.867389 36.144405
303 2 2.409627 14.457762 36.144405
304 2 2.409627 16.867389 33.734778
305 1 1.2048135 15.6625755 39.7588455
306 1 1.2048135 18.0722025 42.1684725
307 1 3.6144405 18.0722025 39.7588455
308 1 3.6144405 15.6625755 42.1684725
309 2 3.5527136788e-15 14.457762 38.554032
310 2 3.5527136788e-15 16.867389 40.963659
311 2 2.409627 14.457762 40.963659
312 2 2.409627 16.867389 38.554032
313 1 1.2048135 15.6625755 44.5780995
314 1 1.2048135 18.0722025 46.9877265
315 1 3.6144405 18.0722025 44.5780995
316 1 3.6144405 15.6625755 46.9877265
317 2 3.5527136788e-15 14.457762 43.373286
318 2 3.5527136788e-15 16.867389 45.782913
319 2 2.409627 14.457762 45.782913
320 2 2.409627 16.867389 43.373286
321 1 1.2048135 20.4818295 1.2048135
322 1 1.2048135 22.8914565 3.6144405
323 1 3.6144405 22.8914565 1.2048135
324 1 3.6144405 20.4818295 3.6144405
325 2 3.5527136788e-15 19.277016 3.5527136788e-15
326 2 3.5527136788e-15 21.686643 2.409627
327 2 2.409627 19.277016 2.409627
328 2 2.409627 21.686643 3.5527136788e-15
329 1 1.2048135 20.4818295 6.0240675
330 1 1.2048135 22.8914565 8.4336945
331 1 3.6144405 22.8914565 6.0240675
332 1 3.6144405 20.4818295 8.4336945
333 2 3.5527136788e-15 19.277016 4.819254
334 2 3.5527136788e-15 21.686643 7.228881
335 2 2.409627 19.277016 7.228881
336 2 2.409627 21.686643 4.819254
337 1 1.2048135 20.4818295 10.8433215
338 1 1.2048135 22.8914565 13.2529485
339 1 3.6144405 22.8914565 10.8433215
340 1 3.6144405 20.4818295 13.2529485
341 2 3.5527136788e-15 19.277016 9.638508
342 2 3.5527136788e-15 21.686643 12.048135
343 2 2.409627 19.277016 12.048135
344 2 2.409627 21.686643 9.638508
345 1 1.2048135 20.4818295 15.6625755
346 1 1.2048135 22.8914565 18.0722025
347 1 3.6144405 22.8914565 15.6625755
348 1 3.6144405 20.4818295 18.0722025
349 2 3.5527136788e-15 19.277016 14.457762
350 2 3.5527136788e-15 21.686643 16.867389
351 2 2.409627 19.277016 16.867389
352 2 2.409627 21.686643 14.457762
353 1 1.2048135 20.4818295 20.4818295
354 1 1.2048135 22.8914565 22.8914565
355 1 3.6144405 22.8914565 20.4818295
356 1 3.6144405 20.4818295 22.8914565
357 2 3.5527136788e-15 19.277016 19.277016
358 2 3.5527136788e-15 21.686643 21.686643
359 2 2.409627 19.277016 21.686643
360 2 2.409627 21.686643 19.277016
361 1 1.2048135 20.4818295 25.3010835
362 1 1.2048135 22.8914565 27.7107105
363 1 3.6144405 22.8914565 25.3010835
364 1 3.6144405 20.4818295 27.7107105
365 2 3.5527136788e-15 19.277016 24.09627
366 2 3.5527136788e-15 21.686643 26.505897
367 2 2.409627 19.277016 26.505897
368 2 2.409627 21.686643 24.09627
369 1 1.2048135 20.4818295 30.1203375
370 1 1.2048135 22.8914565 32.5299645
371 1 3.6144405 22.8914565 30.1203375
372 1 3.6144405 20.4818295 32.5299645
373 2 3.5527136788e-15 19.277016 28.915524
374 2 3.5527136788e-15 21.686643 31.325151
375 2 2.409627 19.277016 31.325151
376 2 2.409627 21.686643 28.915524
377 1 1.2048135 20.4818295 34.9395915
378 1 1.2048135 22.8914565 37.3492185
379 1 3.6144405 22.8914565 34.9395915
380 1 3.6144405 20.4818295 37.3492185
381 2 3.5527136788e-15 19.277016 33.734778
382 2 3.5527136788e-15 21.686643 36.144405
383 2 2.409627 19.277016 36.144405
384 2 2.409627 21.686643 33.734778
385 1 1.2048135 20.4818295 39.7588455
386 1 1.2048135 22.8914565 42.1684725
387 1 3.6144405 22.8914565 39.7588455
388 1 3.6144405 20.4818295 42.1684725
389 2 3.5527136788e-15 19.277016 38.554032
390 2 3.5527136788e-15 21.686643 40.963659
391 2 2.409627 19.277016 40.963659
392 2 2.409627 21.686643 38.554032
393 1 1.2048135 20.4818295 44.5780995
394 1 1.2048135 22.8914565 46.9877265
395 1 3.6144405 22.8914565 44.5780995
396 1 3.6144405 20.4818295 46.9877265
397 2 3.5527136788e-15 19.277016 43.373286
398 2 3.5527136788e-15 21.686643 45.782913
399 2 2.409627 19.277016 45.782913
400 2 2.409627 21.686643 43.373286
401 1 1.2048135 25.3010835 1.2048135
402 1 1.2048135 27.7107105 3.6144405
403 1 3.6144405 27.7107105 1.2048135
404 1 3.6144405 25.3010835 3.6144405
405 2 3.5527136788e-15 24.09627 3.5527136788e-15
406 2 3.5527136788e-15 26.505897 2.409627
407 2 2.409627 24.09627 2.409627
408 2 2.409627 26.505897 3.5527136788e-15
409 1 1.2048135 25.3010835 6.0240675
410 1 1.2048135 27.7107105 8.4336945
411 1 3.6144405 27.7107105 6.0240675
412 1 3.6144405 25.3010835 8.4336945
413 2 3.5527136788e-15 24.09627 4.819254
414 2 3.5527136788e-15 26.505897 7.228881
415 2 2.409627 24.09627 7.228881
416 2 2.409627 26.505897 4.819254
417 1 1.2048135 25.3010835 10.8433215
418 1 1.2048135 27.7107105 13.2529485
419 1 3.6144405 27.7107105 10.8433215
420 1 3.6144405 25.3010835 13.2529485
421 2 3.5527136788e-15 24.09627 9.638508
422 2 3.5527136788e-15 26.505897 12.048135
423 2 2.409627 24.09627 12.048135
424 2 2.409627 26.505897 9.638508
425 1 1.2048135 25.3010835 15.6625755
426 1 1.2048135 27.7107105 18.0722025
427 1 3.6144405 27.7107105 15.6625755
428 1 3.6144405 25.3010835 18.0722025
429 2 3.5527136788e-15 24.09627 14.457762
430 2 3.5527136788e-15 26.505897 16.867389
431 2 2.409627 24.09627 16.867389
432 2 2.409627 26.505897 14.457762
433 1 1.2048135 25.3010835 20.4818295
434 1 1.2048135 27.7107105 22.8914565
435 1 3.6144405 27.7107105 20.4818295
436 1 3.6144405 25.3010835 22.8914565
437 2 3.5527136788e-15 24.09627 19.277016
438 2 3.5527136788e-15 26.505897 21.686643
439 2 2.409627 24.09627 21.686643
440 2 2.409627 26.505897 19.277016
441 1 1.2048135 25.3010835 25.3010835
442 1 1.2048135 27.7107105 27.7107105
443 1 3.6144405 27.7107105 25.3010835
444 1 3.6144405 25.3010835 27.7107105
445 2 3.5527136788e-15 24.09627 24.09627
446 2 3.5527136788e-15 26.505897 26.505897
447 2 2.409627 24.09627 26.505897
448 2 2.409627 26.505897 24.09627
449 1 1.2048135 25.3010835 30.1203375
450 1 1.2048135 27.7107105 32.5299645
451 1 3.6144405 27.7107105 30.1203375
452 1 3.6144405 25.3010835 32.5299645
453 2 3.5527136788e-15 24.09627 28.915524
454 2 3.5527136788e-15 26.505897 31.325151
455 2 2.409627 24.09627 31.325151
456 2 2.409627 26.505897 28.915524
457 1 1.2048135 25.3010835 34.9395915
458 1 1.2048135 27.7107105 37.3492185
459 1 3.6144405 27.7107105 34.9395915
460 1 3.6144405 25.3010835 37.3492185
461 2 3.5527136788e-15 24.09627 33.734778
462 2 3.5527136788e-15 26.505897 36.144405
463 2 2.409627 24.09627 36.144405
464 2 2.409627 26.505897 33.734778
465 1 1.2048135 25.3010835 39.7588455
466 1 1.2048135 27.7107105 42.1684725
467 1 3.6144405 27.7107105 39.7588455
468 1 3.6144405 25.3010835 42.1684725
469 2 3.5527136788e-15 24.09627 38.554032
470 2 3.5527136788e-15 26.505897 40.963659
471 2 2.409627 24.09627 40.963659
472 2 2.409627 26.505897 38.554032
473 1 1.2048135 25.3010835 44.5780995
474 1 1.2048135 27.7107105 46.9877265
475 1 3.6144405 27.7107105 44.5780995
476 1 3.6144405 25.3010835 46.9877265
477 2 3.5527136788e-15 24.09627 43.373286
478 2 3.5527136788e-15 26.505897 45.782913
479 2 2.409627 24.09627 45.782913
480 2 2.409627 26.505897 43.373286
481 1 1.2048135 30.1203375 1.2048135
482 1 1.2048135 32.5299645 3.6144405
483 1 3.6144405 32.5299645 1.2048135
484 1 3.6144405 30.1203375 3.6144405
485 2 3.5527136788e-15 28.915524 3.5527136788e-15
486 2 3.5527136788e-15 31.325151 2.409627
487 2 2.409627 28.915524 2.409627
488 2 2.409627 31.325151 3.5527136788e-15
489 1 1.2048135 30.1203375 6.0240675
490 1 1.2048135 32.5299645 8.4336945
491 1 3.6144405 32.5299645 6.0240675
492 1 3.6144405 30.1203375 8.4336945
493 2 3.5527136788e-15 28.915524 4.819254
494 2 3.5527136788e-15 31.325151 7.228881
495 2 2.409627 28.915524 7.228881
496 2 2.409627 31.325151 4.819254
497 1 1.2048135 30.1203375 10.8433215
498 1 1.2048135 32.5299645 13.2529485
499 1 3.6144405 32.5299645 10.8433215
500 1 3.6144405 30.1203375 13.2529485
501 2 3.5527136788e-15 28.915524 9.638508
502 2 3.5527136788e-15 31.325151 12.048135
503 2 2.409627 28.915524 12.048135
504 2 2.409627 31.325151 9.638508
505 1 1.2048135 30.1203375 15.6625755
506 1 1.2048135 32.5299645 18.0722025
507 1 3.6144405 32.5299645 15.6625755
508 1 3.6144405 30.1203375 18.0722025
509 2 3.5527136788e-15 28.915524 14.457762
510 2 3.5527136788e-15 31.325151 16.867389
511 2 2.409627 28.915524 16.867389
512 2 2.409627 31.325151 14.457762
513 1 1.2048135 30.1203375 20.4818295
514 1 1.2048135 32.5299645 22.8914565
515 1 3.6144405 32.5299645 20.4818295
516 1 3.6144405 30.1203375 22.8914565
517 2 3.5527136788e-15 28.915524 19.277016
518 2 3.5527136788e-15 31.325151 21.686643
519 2 2.409627 28.915524 21.686643
520 2 2.409627 31.325151 19.277016
521 1 1.2048135 30.1203375 25.3010835
522 1 1.2048135 32.5299645 27.7107105
523 1 3.6144405 32.5299645 25.3010835
524 1 3.6144405 30.1203375 27.7107105
525 2 3.5527136788e-15 28.915524 24.09627
526 2 3.5527136788e-15 31.325151 26.505897
527 2 2.409627 28.915524 26.505897
528 2 2.409627 31.325151 24.09627
529 1 1.2048135 30.1203375 30.1203375
530 1 1.2048135 32.5299645 32.5299645
531 1 3.6144405 32.5299645 30.1203375
532 1 3.6144405 30.1203375 32.5299645
533 2 3.5527136788e-15 28.915524 28.915524
534 2 3.5527136788e-15 31.325151 31.325151
535 2 2.409627 28.915524 31.325151
536 2 2.409627 31.325151 28.915524
537 1 1.2048135 30.1203375 34.9395915
538 1 1.2048135 32.5299645 37.3492185
539 1 3.6144405 32.5299645 34.9395915
540 1 3.6144405 30.1203375 37.3492185
541 2 3.5527136788e-15 28.915524 33.734778
542 2 3.5527136788e-15 31.325151 36.144405
543 2 2.409627 28.915524 36.144405
544 2 2.409627 31.325151 33.734778
545 1 1.2048135 30.1203375 39.7588455
546 1 1.2048135 32.5299645 42.1684725
547 1 3.6144405 32.5299645 39.7588455
548 1 3.6144405 30.1203375 42.1684725
549 2 3.5527136788e-15 28.915524 38.554032
550 2 3.5527136788e-15 31.325151 40.963659
551 2 2.409627 28.915524 40.963659
552 2 2.409627 31.325151 38.554032
553 1 1.2048135 30.1203375 44.5780995
554 1 1.2048135 32.5299645 46.9877265
555 1 3.6144405 32.5299645 44.5780995
556 1 3.6144405 30.1203375 46.9877265
557 2 3.5527136788e-15 28.915524 43.373286
558 2 3.5527136788e-15 31.325151 45.782913
559 2 2.409627 28.915524 45.782913
560 2 2.409627 31.325151 43.373286
561 1 1.2048135 34.9395915 1.2048135
562 1 1.2048135 37.3492185 3.6144405
563 1 3.6144405 37.3492185 1.2048135
564 1 3.6144405 34.9395915 3.6144405
565 2 3.5527136788e-15 33.734778 3.5527136788e-15
566 2 3.5527136788e-15 36.144405 2.409627
567 2 2.409627 33.734778 2.409627
568 2 2.409627 36.144405 3.5527136788e-15
569 1 1.2048135 34.9395915 6.0240675
570 1 1.2048135 37.3492185 8.4336945
571 1 3.6144405 37.3492185 6.0240675
572 1 3.6144405 34.9395915 8.4336945
573 2 3.5527136788e-15 33.734778 4.819254
574 2 3.5527136788e-15 36.144405 7.228881
575 2 2.409627 33.734778 7.228881
576 2 2.409627 36.144405 4.819254
577 1 1.2048135 34.9395915 10.8433215
578 1 1.2048135 37.3492185 13.2529485
579 1 3.6144405 37.3492185 10.8433215
580 1 3.6144405 34.9395915 13.2529485
581 2 3.5527136788e-15 33.734778 9.638508
582 2 3.5527136788e-15 36.144405 12.048135
583 2 2.409627 33.734778 12.048135
584 2 2.409627 36.144405 9.638508
585 1 1.2048135 34.9395915 15.6625755
586 1 1.2048135 37.3492185 18.0722025
587 1 3.6144405 37.3492185 15.6625755
588 1 3.6144405 34.9395915 18.0722025
589 2 3.5527136788e-15 33.734778 14.457762
590 2 3.5527136788e-15 36.144405 16.867389
591 2 2.409627 33.734778 16.867389
592 2 2.409627 36.144405 14.457762
593 1 1.2048135 34.9395915 20.4818295
594 1 1.2048135 37.3492185 22.8914565
595 1 3.6144405 37.3492185 20.4818295
596 1 3.6144405 34.9395915 22.8914565
597 2 3.5527136788e-15 33.734778 19.277016
598 2 3.5527136788e-15 36.144405 21.686643
599 2 2.409627 33.734778 21.686643
600 2 2.409627 36.144405 19.277016
601 1 1.2048135 34.9395915 25.3010835
602 1 1.2048135 37.3492185 27.7107105
603 1 3.6144405 37.3492185 25.3010835
604 1 3.6144405 34.9395915 27.7107105
605 2 3.5527136788e-15 33.734778 24.09627
606 2 3.5527136788e-15 36.144405 26.505897
607 2 2.409627 33.734778 26.505897
608 2 2.409627 36.144405 24.09627
609 1 1.2048135 34.9395915 30.1203375
610 1 1.2048135 37.3492185 32.5299645
611 1 3.6144405 37.3492185 30.1203375
612 1 3.6144405 34.9395915 32.5299645
613 2 3.5527136788e-15 33.734778 28.915524
614 2 3.5527136788e-15 36.144405 31.325151
615 2 2.409627 33.734778 31.325151
616 2 2.409627 36.144405 28.915524
617 1 1.2048135 34.9395915 34.9395915
618 1 1.2048135 37.3492185 37.3492185
619 1 3.6144405 37.3492185 34.9395915
620 1 3.6144405 34.9395915 37.3492185
621 2 3.5527136788e-15 33.734778 33.734778
622 2 3.5527136788e-15 36.144405 36.144405
623 2 2.409627 33.734778 36.144405
624 2 2.409627 36.144405 33.734778
625 1 1.2048135 34.9395915 39.7588455
626 1 1.2048135 37.3492185 42.1684725
627 1 3.6144405 37.3492185 39.7588455
628 1 3.6144405 34.9395915 42.1684725
629 2 3.5527136788e-15 33.734778 38.554032
630 2 3.5527136788e-15 36.144405 40.963659
631 2 2.409627 33.734778 40.963659
632 2 2.409627 36.144405 38.554032
633 1 1.2048135 34.9395915 44.5780995
634 1 1.2048135 37.3492185 46.9877265
635 1 3.6144405 37.3492185 44.5780995
636 1 3.6144405 34.9395915 46.9877265
637 2 3.5527136788e-15 33.734778 43.373286
638 2 3.5527136788e-15 36.144405 45.782913
639 2 2.409627 33.734778 45.782913
640 2 2.409627 36.144405 43.373286
641 1 1.2048135 39.7588455 1.2048135
642 1 1.2048135 42.1684725 3.6144405
643 1 3.6144405 42.1684725 1.2048135
644 1 3.6144405 39.7588455 3.6144405
645 2 3.5527136788e-15 38.554032 3.5527136788e-15
646 2 3.5527136788e-15 40.963659 2.409627
647 2 2.409627 38.554032 2.409627
648 2 2.409627 40.963659 3.5527136788e-15
649 1 1.2048135 39.7588455 6.0240675
650 1 1.2048135 42.1684725 8.4336945
651 1 3.6144405 42.1684725 6.0240675
652 1 3.6144405 39.7588455 8.4336945
653 2 3.5527136788e-15 38.554032 4.819254
654 2 3.5527136788e-15 40.963659 7.228881
655 2 2.409627 38.554032 7.228881
656 2 2.409627 40.963659 4.819254
657 1 1.2048135 39.7588455 10.8433215
658 1 1.2048135 42.1684725 13.2529485
659 1 3.6144405 42.1684725 10.8433215
660 1 3.6144405 39.7588455 13.2529485
661 2 3.5527136788e-15 38.554032 9.638508
662 2 3.5527136788e-15 40.963659 12.048135
663 2 2.409627 38.554032 12.048135
664 2 2.409627 40.963659 9.638508
665 1 1.2048135 39.7588455 15.6625755
666 1 1.2048135 42.1684725 18.0722025
667 1 3.6144405 42.1684725 15.6625755
668 1 3.6144405 39.7588455 18.0722025
669 2 3.5527136788e-15 38.554032 14.457762
670 2 3.5527136788e-15 40.963659 16.867389
671 2 2.409627 38.554032 16.867389
672 2 2.409627 40.963659 14.457762
673 1 1.2048135 39.7588455 20.4818295
674 1 1.2048135 42.1684725 22.8914565
675 1 3.6144405 42.1684725 20.4818295
676 1 3.6144405 39.7588455 22.8914565
677 2 3.5527136788e-15 38.554032 19.277016
678 2 3.5527136788e-15 40.963659 21.686643
679 2 2.409627 38.554032 21.686643
680 2 2.409627 40.963659 19.277016
681 1 1.2048135 39.7588455 25.3010835
682 1 1.2048135 42.1684725 27.7107105
683 1 3.6144405 42.1684725 25.3010835
684 1 3.6144405 39.7588455 27.7107105
685 2 3.5527136788e-15 38.554032 24.09627
686 2 3.5527136788e-15 40.963659 26.505897
687 2 2.409627 38.554032 26.505897
688 2 2.409627 40.963659 24.09627
689 1 1.2048135 39.7588455 30.1203375
690 1 1.2048135 42.1684725 32.5299645
691 1 3.6144405 42.1684725 30.1203375
692 1 3.6144405 39.7588455 32.5299645
693 2 3.5527136788e-15 38.554032 28.915524
694 2 3.5527136788e-15 40.963659 31.325151
695 2 2.409627 38.554032 31.325151
696 2 2.409627 40.963659 28.915524
697 1 1.2048135 39.7588455 34.9395915
698 1 1.2048135 42.1684725 37.3492185
699 1 3.6144405 42.1684725 34.9395915
700 1 3.6144405 39.7588455 37.3492185
701 2 3.5527136788e-15 38.554032 33.734778
702 2 3.5527136788e-15 40.963659 36.144405
703 2 2.409627 38.554032 36.144405
704 2 2.409627 40.963659 33.734778
705 1 1.2048135 39.7588455 39.7588455
706 1 1.2048135 42.1684725 42.1684725
707 1 3.6144405 42.1684725 39.7588455
708 1 3.6144405 39.7588455 42.1684725
709 2 3.5527136788e-15 38.554032 38.554032
710 2 3.5527136788e-15 40.963659 40.963659
711 2 2.409627 38.554032 40.963659
712 2 2.409627 40.963659 38.554032
713 1 1.2048135 39.7588455 44.5780995
714 1 1.2048135 42.1684725 46.9877265
715 1 3.6144405 42.1684725 44.5780995
716 1 3.6144405 39.7588455 46.9877265
717 2 3.5527136788e-15 38.554032 43.373286
718 2 3.5527136788e-15 40.963659 45.782913
719 2 2.409627 38.554032 45.782913
720 2 2.409627 40.963659 43.373286
721 1 1.2048135 44.5780995 1.2048135
722 1 1.2048135 46.9877265 3.6144405
723 1 3.6144405 46.9877265 1.2048135
724 1 3.6144405 44.5780995 3.6144405
725 2 3.5527136788e-15 43.373286 3.5527136788e-15
726 2 3.5527136788e-15 45.782913 2.409627
727 2 2.409627 43.373286 2.409627
728 2 2.409627 45.782913 3.5527136788e-15
729 1 1.2048135 44.5780995 6.0240675
730 1 1.2048135 46.9877265 8.4336945
731 1 3.6144405 46.9877265 6.0240675
732 1 3.6144405 44.5780995 8.4336945
733 2 3.5527136788e-15 43.373286 4.819254
734 2 3.5527136788e-15 45.782913 7.228881
735 2 2.409627 43.373286 7.228881
736 2 2.409627 45.782913 4.819254
737 1 1.2048135 44.5780995 10.8433215
738 1 1.2048135 46.9877265 13.2529485
739 1 3.6144405 46.9877265 10.8433215
740 1 3.6144405 44.5780995 13.2529485
741 2 3.5527136788e-15 43.373286 9.638508
742 2 3.5527136788e-15 45.782913 12.048135
743 2 2.409627 43.373286 12.048135
744 2 2.409627 45.782913 9.638508
745 1 1.2048135 44.5780995 15.6625755
746 1 1.2048135 46.9877265 18.0722025
747 1 3.6144405 46.9877265 15.6625755
748 1 3.6144405 44.5780995 18.0722025
749 2 3.5527136788e-15 43.373286 14.457762
750 2 3.5527136788e-15 45.782913 16.867389
751 2 2.409627 43.373286 16.867389
752 2 2.409627 45.782913 14.457762
753 1 1.2048135 44.5780995 20.4818295
754 1 1.2048135 46.9877265 22.8914565
755 1 3.6144405 46.9877265 20.4818295
756 1 3.6144405 44.5780995 22.8914565
757 2 3.5527136788e-15 43.373286 19.277016
758 2 3.5527136788e-15 45.782913 21.686643
759 2 2.409627 43.373286 21.686643
760 2 2.409627 45.782913 19.277016
761 1 1.2048135 44.5780995 25.3010835
762 1 1.2048135 46.9877265 27.7107105
763 1 3.6144405 46.9877265 25.3010835
764 1 3.6144405 44.5780995 27.7107105
765 2 3.5527136788e-15 43.373286 24.09627
766 2 3.5527136788e-15 45.782913 26.505897
767 2 2.409627 43.373286 26.505897
768 2 2.409627 45.782913 24.09627
769 1 1.2048135 44.5780995 30.1203375
770 1 1.2048135 46.9877265 32.5299645
771 1 3.6144405 46.9877265 30.1203375
772 1 3.6144405 44.5780995 32.5299645
773 2 3.5527136788e-15 43.373286 28.915524
774 2 3.5527136788e-15 45.782913 31.325151
775 2 2.409627 43.373286 31.325151
776 2 2.409627 45.782913 28.915524
777 1 1.2048135 44.5780995 34.9395915
778 1 1.2048135 46.9877265 37.3492185
779 1 3.6144405 46.9877265 34.9395915