128
Lattice="-4.4227e-05 9.62251 9.6226 9.62236 2.7106e-05 9.62252 9.62249 9.62257 -0.000104539" Properties=species:S:1:pos:R:3:force:R:3 Config_type="O U T C A R" Weight=1.0 Energy=-727.397449 Virial="7.02653 -2.6754 1.40485 -2.6754 7.4288 0.85734 1.40485 0.85734 7.87049" pbc="T T T"
B       9.64680000       9.56435000      19.13300000      -0.12714500      -0.02856400       0.83376600 
B      12.01310000       2.43794000       9.62887000       0.08725100       0.27082200       0.12156400 
B      14.39020000       4.82884000       9.58121000       0.47653400      -0.47419500       0.45636400 
B      16.77820000       7.26657000       9.61244000       0.47829300      -0.33651600       0.35503300 
B      11.95360000       9.65430000       2.38573000       0.06061500      -0.64330000       0.21220700 
B       4.77604000      11.99750000      12.01400000       0.35594700       0.55155900       0.53266700 
B       7.23181000      14.48040000      11.99560000      -0.55989800      -0.47223100      -0.18607800 
B       9.71829000      16.85480000      12.00120000      -0.43776300      -0.59841600       0.40849100 
B       4.84303000       9.60367000      14.37870000      -0.19587600      -0.09163700       0.24127900 
B       7.23547000      12.03510000      14.36520000      -0.07282400       0.00235000       0.99088600 
B       9.59993000      14.40010000      14.42380000      -0.14141800      -0.00481000      -0.32683300 
B      11.99400000       7.27043000       4.85971000       0.22705700      -0.32223800       0.18970200 
B       7.16410000       0.03927000       7.18878000      -0.12780200      -0.44408800       0.14577100 
B       9.63832000      12.03460000      16.84180000      -0.31949400      -0.49251900       0.77770000 
B      11.97550000       4.80883000       7.19558000       0.09076100      -0.13705600      -0.18390100 
B      14.38270000      16.79290000      16.82140000       0.60367500       0.24709900       0.21991000 
B       9.61393000       2.41845000      12.00330000      -0.23983100      -0.10428200      -0.49502200 
B       2.40058000       4.79301000       2.44983000      -0.14686700       0.27175200      -0.02602300 
B       4.81836000       7.23404000       2.43606000      -0.59841300      -0.13804600      -0.03278300 
B       7.27124000       9.59011000       2.43233000      -0.21030100      -0.36154300      -0.17200400 
B      12.00760000      12.00400000       4.78794000       0.28055700       0.02159200       0.42491900 
B       4.86548000       4.78000000       4.79931000      -0.21876800       0.46161800       0.12969800 
B       7.26568000       7.24836000       4.80791000      -0.42317300      -0.51829800       0.38887100 
B       9.58685000       9.65229000       4.81484000       0.46534400      -0.22627300       0.39542500 
B       4.84731000       2.43324000       7.21354000      -0.43744400      -0.43159600      -0.11360000 
B       7.27307000       4.76333000       7.24826000      -0.11122000      -0.07409900       0.28218600 
B       9.65401000       7.27181000       7.22292000       0.00734700      -0.22319200      -0.33994100 
B      12.06200000       9.66740000       7.24631000      -0.10175100      -0.01598900      -0.18798400 
B       7.22605000       2.41807000       9.63035000       0.20450200      -0.31256100       0.45604300 
B       9.65702000       4.89917000       9.61393000      -0.13854400      -0.38668500       0.00615900 
B      12.02060000       7.18920000       9.62212000       0.15687500      -0.21265300      -0.10861000 
B      14.44970000       9.61686000       9.63750000      -0.55817100       0.53051300       0.12502800 
B       9.61934000      14.45310000       4.83661000       0.00440300      -0.90077300      -0.27028000 
B      12.00750000       7.26460000      14.43730000      -0.31884700       0.02199800      -0.16075400 
B      14.44580000       9.66211000      14.43650000      -0.40392900       0.21461000      -0.05055000 
B      16.90660000      12.03800000      14.36970000      -0.72232900       0.06000000       0.27075100 
B      11.98380000      14.39780000       7.20011000       0.21727200       0.29003000      -0.21453300 
B       4.81471000       7.18111000       7.15577000      -0.04328000       0.11315400       0.23996500 
B       7.18421000       9.64382000       7.21077000      -0.14376500      -0.35176800       0.15211900 
B       9.56685000      12.01260000       7.31447000       0.33064700       0.03315500      -0.54760400 
B       4.81319000       4.81454000       9.59028000      -0.49142300      -0.31274100       0.33868100 
B       7.17420000       7.22117000       9.61757000       0.24549700       0.10574500      -0.07020200 
B       9.65847000       9.60644000       9.64156000       0.07270500      -0.26782800      -0.21641100 
B      12.06680000      12.06600000       9.61825000      -0.60114600       0.24058400       0.08134700 
B       7.22189000       4.82142000      11.99010000       0.07205700       0.67320600       0.15093400 
B       9.66416000       7.22127000      12.04370000      -0.45082000      -0.41322100       0.03203200 
B      12.00360000       9.59137000      11.97610000      -0.05344800      -0.24217700       0.32255000 
B      14.46010000      12.03180000      12.01510000      -0.14184000      -0.36428300       0.23066100 
B       9.57651000       7.24282000      16.78920000       0.66902100      -0.11245700       0.60051100 
B       2.46077000       9.61833000       7.18744000       0.05597100       0.33897500       0.49603200 
B       4.85964000      12.05040000       7.19883000       0.05548400       0.21280100      -0.11442600 
B       7.22155000      14.43270000       7.27488000       0.39055700      -0.31621400      -0.37594400 
B      12.07390000      16.73860000       9.57279000      -0.41815900       0.70443000       0.77859900 
B       4.72366000       9.62406000       9.66996000       0.64114300       0.30845800      -0.23603700 
B       7.23394000      11.98710000       9.70580000      -0.21764600       0.04582800      -0.88528700 
B       9.59582000      14.48440000       9.61479000       0.27325000       0.35268500       0.48263900 
B      14.38810000      16.83400000      12.07810000       0.58066400       0.36802300      -0.45493200 
B       7.29200000       9.61581000      12.00650000      -0.27156400       0.24024600       0.39719500 
B       9.62640000      12.03790000      11.94780000       0.05047000      -0.00744900       0.14219900 
B      12.01080000      14.42370000      12.08680000       0.39973600      -0.39568400       0.16227000 
B       7.26157000       7.19441000      14.42900000      -0.11224400      -0.03079800      -0.07829800 
B       9.57624000       9.66081000      14.46570000       0.29051200       0.24581400      -0.14457900 
B      12.01190000      11.99920000      14.43040000       0.18374300      -0.21754800       0.26449300 
B      14.44190000      14.41170000      14.44840000      -0.07732600       0.62773200      -0.50857400 
As       1.13554000       1.19653000       1.12607000       0.64345400       0.07867600       0.31585800 
As       3.59931000       3.66106000       1.24327000       0.05681100      -0.81308400      -0.62090200 
As       5.96002000       6.03097000       1.21118000       0.45325200       0.08113400      -0.40404900 
As       8.49863000       8.37220000       1.19086000      -0.76828400       0.51507000      -0.20043400 
As       3.58013000       1.16799000       3.59949000       0.04167500       0.14234500      -0.31732700 
As       6.05453000       3.59616000       3.58307000      -0.52189800       0.32318200      -0.44127600 
As       8.41779000       6.02631000       3.54848000       0.61763600       0.17732200       0.55145500 
As      10.80590000       8.41803000       3.67964000      -0.01287600       0.73754200      -0.91144600 
As       5.96970000       1.22909000       5.97012000       0.79368500      -0.11261200      -0.16068300 
As       8.44204000       3.57020000       6.04414000      -0.36455300       0.17491000      -0.73810000 
As      10.75850000       6.00969000       5.98600000       0.68656300       0.17299100       0.17797500 
As      13.25360000       8.45488000       6.04212000      -0.15452800      -0.24855000      -0.47065200 
As       8.36312000       1.15476000       8.45506000       0.78877100       0.69507500      -1.10283500 
As      10.80850000       3.63832000       8.44760000       0.07008800      -0.25216000      -0.39548600 
As      13.16050000       5.98196000       8.39907000       0.59067500       0.15640800      -0.28631800 
As      15.55900000       8.46001000       8.43141000       0.74762900      -0.77450500      -0.99799800 
As       1.17640000       3.56064000       3.59045000       0.30194000       0.70294600       0.55725000 
As       3.56799000       6.03045000       3.64395000       0.67554600      -0.15930900      -0.07206700 
As       5.97028000       8.44093000       3.67813000       1.10506200      -0.26545100      -0.94836900 
As       8.45268000      10.80660000       3.58535000      -0.29579000       0.47357200      -0.17793000 
As       3.66410000       3.58107000       5.98479000      -1.14728900       0.31397200       0.15729300 
As       6.09078000       5.94020000       6.06029000      -0.35054000       0.81125600      -0.91446600 
As       8.43498000       8.46157000       6.04570000      -0.36637200      -0.18223600      -0.28608600 
As      10.78750000      10.84220000       6.03375000       0.38017500       0.05871500       0.38996800 
As       6.00778000       3.55381000       8.44975000       0.56690400       1.01125700      -0.22916800 
As       8.48597000       6.04553000       8.37204000      -1.15534900       0.15333400       0.87654800 
As      10.89490000       8.40731000       8.42437000      -0.64230700       0.50906900       0.03030600 
As      13.25670000      10.88840000       8.44510000       0.13505600      -0.42748500      -0.32696100 
As       8.44479000       3.70782000      10.79330000      -0.28402700      -1.12959900       0.00809700 
As      10.85240000       6.01313000      10.85280000       0.07627800       0.23472100       0.10583500 
As      13.22790000       8.36506000      10.76430000       0.19098200       0.66942200       1.11791700 
As      15.70000000      10.76880000      10.83660000      -0.49895100       0.70665800       0.33756000 
As       1.16832000       6.04948000       5.99815000       0.44654200      -0.44181300       0.16453100 
As       3.64126000       8.43803000       5.96672000      -0.08870200      -0.19316300       0.37560100 
As       6.05702000      10.86630000       5.98427000      -0.34578300      -0.05310000      -0.20186600 
As       8.39820000      13.17910000       6.03561000       0.55048600       0.94509600       0.21644700 
As       3.59502000       5.99660000       8.36286000       0.63621100      -0.62521000      -0.21460800 
As       5.91744000       8.44500000       8.39208000       0.67332900      -0.24900700       0.47789700 
As       8.38142000      10.75240000       8.46142000       0.37648900       0.51089600       0.26331300 
As      10.76170000      13.28690000       8.48670000       0.77882600      -0.95379300      -1.03572800 
As       5.94087000       6.00537000      10.84810000       0.71601200       0.32451600      -0.53072300 
As       8.46907000       8.39099000      10.86280000      -0.44081300       0.08151000      -1.05210800 
As      10.89520000      10.83750000      10.78200000      -0.93132800      -0.06562700       0.04017000 
As      13.20930000      13.23100000      10.85590000       0.77856800       0.38132000      -0.19667100 
As       8.46576000       5.99403000      13.21740000      -0.50939600       0.15283900       0.00845400 
As      10.71990000       8.46344000      13.24960000       1.58830600      -0.15394000      -0.15365300 
As      13.15380000      10.78650000      13.20720000       1.39189600       0.43164100      -0.01564000 
As      15.68450000      13.29470000      13.19360000      -0.61598800      -1.19053600       0.33257500 
As       1.28421000       8.35369000       8.37436000      -0.60827000       0.48541200      -0.11748600 
As       3.64810000      10.94500000       8.41494000      -0.64840900      -1.58427000       0.23994100 
As       6.07588000      13.17370000       8.44664000      -0.87072400       0.86771900       0.14007200 
As       8.42243000      15.69070000       8.43659000      -0.54420400       0.02266500      -0.36978600 
As       3.54183000       8.36424000      10.86640000       0.20570700       0.75470500      -0.53897100 
As       6.02956000      10.83110000      10.88520000      -0.52031300      -0.81423600      -0.54820300 
As       8.39333000      13.29070000      10.75070000       0.47547600      -0.46503100       1.15230800 
As      10.90260000      15.58760000      10.85600000      -0.96492800       0.40720000      -0.57966900 
As       6.10735000       8.40811000      13.18740000      -0.95374400      -0.12609200       0.52579900 
As       8.44851000      10.86620000      13.21470000      -0.14651700      -0.42915200      -0.35574400 
As      10.81020000      13.12730000      13.23870000      -0.14232100       1.56138800      -0.15146500 
As      13.18260000      15.71740000      13.26210000       0.35908000      -1.27747300       0.64383700 
As       8.40841000       8.44385000      15.63130000      -0.62233800       0.16216800       0.13611300 
As      10.82770000      10.82620000      15.66920000       0.07857900      -0.24642400      -0.12277100 
As      13.23330000      13.22720000      15.62060000      -0.14774200      -0.04111500       0.12458000 
As      15.68410000      15.58090000      15.63110000      -0.70682400       0.71527200       0.38448700 
128
Lattice="-7.7854e-05 9.62885 9.62899 9.6286 1.2168e-05 9.6289 9.62872 9.62888 -0.000107454" Properties=species:S:1:pos:R:3:force:R:3 Config_type="O U T C A R" Weight=1.0 Energy=-727.389445 Virial="4.89538 -2.70344 1.55596 -2.70344 4.11334 0.47568 1.55596 0.47568 4.03777" pbc="T T T"
B       9.58322000       0.07763000       9.59815000       0.21956200      -0.39905600       0.55430200 
B       2.35447000       2.34881000       0.03749000      -0.10062800       0.35548900      -0.22641400 
B       4.83624000      14.39630000       9.59230000      -0.23343600       0.10899600       0.09182700 
B      16.87060000       7.28937000       9.62498000       0.07272200      -0.56640000       0.44319700 
B       2.42523000       9.62571000      11.97990000       0.20501900      -0.03590900       0.29206200 
B       4.78733000      11.99710000      12.02850000       0.30320300       0.60442600       0.06937000 
B       7.22294000       4.83368000       2.44698000      -0.25001700       0.00512300       0.04406100 
B       9.63419000       7.29260000       2.43619000       0.27898100      -0.72454100      -0.23171200 
B       4.83935000       9.60224000      14.40520000       0.17247800       0.08503500       0.49818500 
B       7.23494000       2.45682000       4.92107000      -0.26771000      -0.20487100      -0.35100400 
B       9.67330000      14.50740000      14.39050000      -0.19402100      -0.44956700       0.48639800 
B      12.06530000      16.85200000      14.38350000       0.13583200      -0.03448400       0.13617100 
B       7.23629000       9.61805000      16.81830000       0.10307800      -0.05957100       0.61051900 
B       9.64811000      12.05920000      16.79320000      -0.24960000      -0.04314700       0.58228500 
B      11.99980000       4.79566000       7.24147000       0.26657100       0.23610400       0.21183900 
B      14.44580000      16.78240000      16.85490000       0.14212000      -0.01609700      -0.32184300 
B       0.01179000       2.48593000       2.48650000      -0.29094600      -0.22147800      -0.18044200 
B      12.06530000       4.81712000      11.98920000      -0.25004000      -0.17687300       0.02724700 
B      14.51420000       7.23420000      11.95230000      -0.56600100      -0.12857200       0.44383800 
B      16.86200000       9.67407000      12.06250000      -0.37687400       0.10516700       0.09510200 
B       2.41018000       2.40207000       4.80797000       0.04310500       0.02739800       0.07196900 
B       4.80585000       4.82218000       4.77404000      -0.01984800      -0.06229300       0.37952000 
B       7.30008000       7.27763000       4.81472000      -0.72915700      -0.51909700      -0.01428000 
B       9.71009000       9.71845000       4.77224000      -0.53499200      -0.94299900       0.15950100 
B      14.38760000      11.94840000       7.21290000      -0.11623800       0.51794100       0.09195400 
B       7.19870000       4.84746000       7.24838000       0.06540400      -0.50023500       0.06451100 
B       9.66899000       7.23502000       7.19148000      -0.17949700      -0.29451500       0.30347400 
B      11.97920000       9.50691000       7.23334000       0.26760500       0.23269000      -0.34401400 
B       7.20478000       2.44371000       9.61900000       0.03110800      -0.17222600       0.32098300 
B       9.57417000       4.79176000       9.62698000      -0.00668700       0.24026000       0.19466900 
B      11.95400000       7.21782000       9.62818000       0.41913000      -0.39845100       0.09493300 
B      14.44030000       9.61723000       9.56554000       0.09777000      -0.01338700       0.20745100 
B       9.62914000       4.86267000      14.46600000       0.26474900       0.17438500      -0.14629800 
B      12.04750000       7.19060000      14.37910000       0.06955200       0.14519100       0.07974600 
B      14.47200000       9.61467000      14.39340000      -0.53096700      -0.09737700       0.56412300 
B       7.22340000      12.09580000       4.89260000      -0.04876200      -0.25121400      -0.57828700 
B      12.00300000      14.40410000       7.25441000       0.00766000       0.13874500       0.00550600 
B       4.82175000       7.18455000       7.23363000      -0.07550600       0.12612900      -0.11344600 
B       7.23260000       9.61832000       7.19117000      -0.07181300      -0.17499900       0.25431700 
B       9.62150000      12.04260000       7.17765000       0.32382500      -0.01785400       0.25878400 
B      14.41100000      14.36480000       9.58454000      -0.26813000       0.60490900       0.06755000 
B       7.24260000       7.23563000       9.63255000       0.30303100      -0.23935700       0.33247500 
B       9.56692000       9.74276000       9.67636000       0.13099900      -0.71949400      -0.39652000 
B      11.98240000      11.98610000       9.62000000      -0.24850800       0.12742300       0.03723500 
B      16.82240000      14.43010000      12.07170000      -0.01529100       0.18944300      -0.19581000 
B       9.66248000       7.27295000      12.02660000       0.03688400      -0.41540400      -0.17199300 
B      12.06080000       9.59439000      11.96490000      -0.27037700       0.08797100       0.45858500 
B      14.43190000      11.99780000      12.04160000      -0.52767500       0.48437900       0.06269100 
B       0.01763000       7.20824000       7.22374000       0.13284300       0.07885600       0.08549300 
B       2.39383000       9.53582000       7.22206000       0.18442200       0.51537500      -0.09228300 
B      14.37130000      11.96570000      16.83710000       0.31311100       0.20774600       0.00058700 
B       7.20001000      14.44760000       7.27189000       0.09386200      -0.22621600      -0.13919100 
B      11.95720000      16.87020000       9.64558000       0.78892100      -0.29160300       0.08455700 
B       4.78216000       9.61519000       9.60397000       0.79470100       0.45881600      -0.12832600 
B       7.25042000      12.00990000       9.61582000      -0.38372100       0.48551500       0.59805900 
B       9.56312000      14.46900000       9.66814000       0.29435300      -0.30073100       0.00880500 
B       4.88337000       7.21126000      11.94180000      -0.22410700       0.04367600       0.53465000 
B       7.27055000       9.69163000      12.06720000      -0.20549900      -0.09012000       0.00233900 
B       9.62635000      12.09920000      12.09000000       0.03413900      -0.21271500       0.23536500 
B      12.08170000      14.41550000      11.98600000      -0.47862500       0.15460700       0.11819000 
B       7.31966000       7.22449000      14.46360000      -0.61356100       0.09984000      -0.16577100 
B       9.67403000       9.68565000      14.43180000      -0.43826700      -0.35036900       0.27947100 
B      12.06790000      12.05080000      14.48330000       0.02459100      -0.32398400      -0.23094400 
B      14.41520000      14.48280000      14.41930000       0.34986700      -0.19304700       0.14746800 
As       1.13205000       1.22359000       1.29854000       0.57051300      -0.06980300      -1.04695000 
As       3.61501000       3.57420000       1.13913000      -0.18901100       0.14077100       0.80771900 
As       6.03198000       6.00888000       1.15773000       0.53181400      -0.27547600       0.03691800 
As       8.44343000       8.46350000       1.27647000      -0.52450100       0.54959400      -1.36260600 
As       3.61246000       1.18046000       3.59520000      -0.15746700       0.00534500       0.12805000 
As       6.02137000       3.56255000       3.64840000      -0.26529300       0.65465900      -0.29954300 
As       8.45663000       6.07152000       3.60391000      -0.33924400      -0.18903200       0.07065600 
As      10.88900000       8.44799000       3.56915000      -0.21673700       0.29022600       0.50460200 
As       6.03569000       1.18778000       6.07492000      -0.47274300      -0.14905600      -1.15008000 
As       8.44841000       3.67062000       6.04314000       0.10137000       0.42465000      -0.32978500 
As      10.89590000       6.03378000       5.97331000      -0.41575900      -0.00904600       0.49542100 
As      13.29700000       8.33769000       5.99121000      -0.69927000       0.84884200       0.18230100 
As       8.41239000       1.28457000       8.36910000      -0.30256200      -0.79404100       0.53853800 
As      10.77210000       3.58002000       8.45682000       0.67166400       0.21371400      -0.27936200 
As      13.22240000       6.01407000       8.45535000      -0.35753900      -0.34169300      -0.41064700 
As      15.66860000       8.35366000       8.35289000      -0.17221000       1.38711100       0.80634400 
As       1.22054000       3.69466000       3.66245000       0.27055900      -0.72708400      -0.40670800 
As       3.65154000       6.03663000       3.49798000      -0.06189000      -0.20575200       0.73758900 
As       6.01027000       8.42042000       3.61626000       0.91584900       0.09028700      -0.53418300 
As       8.42384000      10.88890000       3.64445000      -0.01229200       0.10594200       0.22720800 
As       3.56972000       3.59486000       6.03032000       0.73109800       0.16748900      -0.24223000 
As       6.05334000       6.02419000       6.00096000      -0.33935100       0.07959200      -0.10955600 
As       8.51109000       8.42780000       5.99402000      -0.39775000       0.89733000      -0.07111400 
As      10.87350000      10.81220000       6.02973000      -0.13652600       0.26858900      -0.10025600 
As       5.94274000       3.54276000       8.42151000       0.68237900       0.64315100      -0.62406800 
As       8.43909000       6.05938000       8.41859000      -0.23617100      -0.47749900      -0.20470400 
As      10.71460000       8.44095000       8.51623000       1.02299600       0.03341500      -0.89611400 
As      13.14010000      10.75570000       8.37315000       0.65792100       0.13096400       0.64629700 
As       8.40525000       3.61213000      10.88330000      -0.10403500       0.14022600      -0.46877800 
As      10.77990000       5.97820000      10.83020000       0.60939700       0.35754400      -0.09500300 
As      13.25480000       8.36107000      10.75730000      -0.14044100       0.92849200       0.23098100 
As      15.62510000      10.91270000      10.86380000       0.60735500      -1.78849300      -1.12524600 
As       1.25392000       6.01031000       6.02363000      -0.46173700       0.18583000      -0.07090700 
As       3.60782000       8.37289000       5.97752000       0.44321400       0.35483800       0.28902500 
As       6.00698000      10.83450000       5.98599000       0.00785900      -0.43676800       0.51575600 
As       8.45834000      13.30450000       6.05303000      -0.64820900      -0.15417300      -0.27355100 
As       3.55769000       6.01839000       8.44063000       0.19270200      -0.34861100      -0.10683200 
As       6.03394000       8.38095000       8.47418000      -0.23280000       0.88624600      -1.16999600 
As       8.42432000      10.87970000       8.37309000      -0.32410400      -0.62304900       0.32019800 
As      10.74590000      13.22550000       8.44969000       0.64148900       0.20439600       0.08197900 
As       6.01632000       5.94839000      10.73120000       0.33765800       0.24481800       1.02223400 
As       8.47064000       8.45254000      10.85580000      -1.09486600       0.39053900      -0.07816500 
As      10.75220000      10.86400000      10.91250000       1.09995700      -0.20597300      -0.76425000 
As      13.23440000      13.17590000      10.78330000      -0.15564200       0.18565600       0.37113000 
As       8.49266000       6.07240000      13.20220000      -0.96154100      -0.66503400       0.53276200 
As      10.83510000       8.45281000      13.21970000       0.52236600      -0.06277600       0.13789700 
As      13.25190000      10.77370000      13.20730000      -0.47487200       0.55244700       0.32962900 
As      15.57860000      13.18610000      13.26440000       0.73614100       1.03321200       0.09632800 
As       1.18254000       8.42462000       8.43257000      -0.40588600       0.14856000       0.25127500 
As       3.53737000      10.79060000       8.43429000       0.26464300      -0.21852700      -0.29598600 
As       5.97823000      13.11440000       8.40287000       0.60711500       1.29365300       0.14339600 
As       8.42515000      15.69190000       8.45901000      -0.29624200      -0.46399300      -0.22459000 
As       3.66219000       8.43713000      10.77250000      -1.03642300      -0.48635100       0.64905800 
As       5.99322000      10.85510000      10.83390000       0.61013600      -0.81755600      -0.23434600 
As       8.42673000      13.25880000      10.93360000      -0.51705900       0.00539400      -1.45167600 
As      10.78820000      15.63990000      10.85510000       0.46564800       0.27247200      -0.05427800 
As       6.09559000       8.41742000      13.23500000      -0.24777500      -0.04816800      -0.26472800 
As       8.43730000      10.95400000      13.31790000      -0.09062600      -1.12954200      -0.30578800 
As      10.86940000      13.24850000      13.22760000       0.31381800       0.24876900       0.50056900 
As      13.24060000      15.66570000      13.17420000       0.51269900      -0.12789400      -0.20234400 
As       8.46599000       8.43602000      15.67740000       0.30031800       0.18544200      -0.74471000 
As      10.84980000      10.80240000      15.70040000       0.45051600       0.43948800      -0.81168000 
As      13.26740000      13.30090000      15.68880000      -0.56017300      -0.73940700      -0.46136600 
As      15.68180000      15.63960000      15.62950000      -0.03514400      -0.20828200      -0.04452000 
128
Lattice="-5.6805e-05 9.63081 9.63097 9.63056 3.8481e-05 9.63087 9.63071 9.63086 -0.000106374" Properties=species:S:1:pos:R:3:force:R:3 Config_type="O U T C A R" Weight=1.0 Energy=-725.496151 Virial="3.95569 -2.71271 1.03797 -2.71271 5.40237 -0.17244 1.03797 -0.17244 5.73681" pbc="T T T"
B       0.02427000       9.53077000       9.53864000       0.15662500      -0.21489300       0.49919100 
B       2.46841000      11.99690000       9.63558000      -0.50617500       0.30538500      -0.32649600 
B      14.45590000       4.88762000       9.63477000      -0.61509300      -0.05761800       0.34789700 
B      16.81650000      16.81280000      19.18850000      -0.05411300      -0.39874400       0.34647500 
B      11.95030000       9.60494000       2.44183000       0.49603500      -0.22222600       0.30238600 
B       4.68997000       2.39948000       2.37648000       0.41351400       0.39701300      -0.09417700 
B       7.21678000      14.38280000      12.01060000       0.03934900       0.34778100       0.16897200 
B       9.58728000       7.16513000       2.45298000       0.40483600      -0.63511400      -0.41294700 
B      14.35480000       9.67079000       4.83664000       0.32171800       0.28874400       0.33659500 
B       7.22087000      11.93990000      14.35390000      -0.19918500      -0.06660300      -0.36940100 
B       9.57517000       4.78082000       4.79944000      -0.14600000      -0.43273300       0.46985300 
B      11.94230000       7.22674000       4.88266000       0.15053400       0.08403300       0.13643200 
B       7.20883000       9.65075000      16.76930000       0.19769400      -0.07798200       0.71719800 
B       9.64225000      11.99760000      16.76560000      -0.23844200       0.09692800       0.47226500 
B      12.04370000      14.43300000      16.80980000       0.30887200       0.30232800       0.42794000 
B      14.35520000       7.33298000       7.26650000       0.22091100      -0.48594600      -0.84178300 
B       9.66094000      11.94720000       2.37232000      -0.19032400      -0.03988500       0.23041300 
B      12.00860000       4.89409000      12.04060000      -0.08587400      -0.34971900       0.08355700 
B       4.83493000       7.23650000       2.48720000      -0.41070100      -0.26049900       0.57246700 
B       7.24469000       9.50348000       2.35951000      -0.17928700       0.46374800       0.33805900 