# LAMMPS data file written by OVITO Basic 3.9.4

7680 atoms
2 atom types

0.0 19.277016 xlo xhi
0.0 289.15524 ylo yhi
0.0 19.277016 zlo zhi

Masses

1 10.811  # B3+
2 74.9216  # As3-

Atoms  # atomic

1 1 1.2048135 1.2048135 1.2048135
2 1 1.2048135 3.6144405 3.6144405
3 1 3.6144405 3.6144405 1.2048135
4 1 3.6144405 1.2048135 3.6144405
5 2 0.0 0.0 0.0
6 2 0.0 2.409627 2.409627
7 2 2.409627 0.0 2.409627
8 2 2.409627 2.409627 0.0
9 1 1.2048135 1.2048135 6.0240675
10 1 1.2048135 3.6144405 8.4336945
11 1 3.6144405 3.6144405 6.0240675
12 1 3.6144405 1.2048135 8.4336945
13 2 0.0 0.0 4.819254
14 2 0.0 2.409627 7.228881
15 2 2.409627 0.0 7.228881
16 2 2.409627 2.409627 4.819254
17 1 1.2048135 1.2048135 10.8433215
18 1 1.2048135 3.6144405 13.2529485
19 1 3.6144405 3.6144405 10.8433215
20 1 3.6144405 1.2048135 13.2529485
21 2 0.0 0.0 9.638508
22 2 0.0 2.409627 12.048135
23 2 2.409627 0.0 12.048135
24 2 2.409627 2.409627 9.638508
25 1 1.2048135 1.2048135 15.6625755
26 1 1.2048135 3.6144405 18.0722025
27 1 3.6144405 3.6144405 15.6625755
28 1 3.6144405 1.2048135 18.0722025
29 2 0.0 0.0 14.457762
30 2 0.0 2.409627 16.867389
31 2 2.409627 0.0 16.867389
32 2 2.409627 2.409627 14.457762
33 1 1.2048135 6.0240675 1.2048135
34 1 1.2048135 8.4336945 3.6144405
35 1 3.6144405 8.4336945 1.2048135
36 1 3.6144405 6.0240675 3.6144405
37 2 0.0 4.819254 0.0
38 2 0.0 7.228881 2.409627
39 2 2.409627 4.819254 2.409627
40 2 2.409627 7.228881 0.0
41 1 1.2048135 6.0240675 6.0240675
42 1 1.2048135 8.4336945 8.4336945
43 1 3.6144405 8.4336945 6.0240675
44 1 3.6144405 6.0240675 8.4336945
45 2 0.0 4.819254 4.819254
46 2 0.0 7.228881 7.228881
47 2 2.409627 4.819254 7.228881
48 2 2.409627 7.228881 4.819254
49 1 1.2048135 6.0240675 10.8433215
50 1 1.2048135 8.4336945 13.2529485
51 1 3.6144405 8.4336945 10.8433215
52 1 3.6144405 6.0240675 13.2529485
53 2 0.0 4.819254 9.638508
54 2 0.0 7.228881 12.048135
55 2 2.409627 4.819254 12.048135
56 2 2.409627 7.228881 9.638508
57 1 1.2048135 6.0240675 15.6625755
58 1 1.2048135 8.4336945 18.0722025
59 1 3.6144405 8.4336945 15.6625755
60 1 3.6144405 6.0240675 18.0722025
61 2 0.0 4.819254 14.457762
62 2 0.0 7.228881 16.867389
63 2 2.409627 4.819254 16.867389
64 2 2.409627 7.228881 14.457762
65 1 1.2048135 10.8433215 1.2048135
66 1 1.2048135 13.2529485 3.6144405
67 1 3.6144405 13.2529485 1.2048135
68 1 3.6144405 10.8433215 3.6144405
69 2 0.0 9.638508 0.0
70 2 0.0 12.048135 2.409627
71 2 2.409627 9.638508 2.409627
72 2 2.409627 12.048135 0.0
73 1 1.2048135 10.8433215 6.0240675
74 1 1.2048135 13.2529485 8.4336945
75 1 3.6144405 13.2529485 6.0240675
76 1 3.6144405 10.8433215 8.4336945
77 2 0.0 9.638508 4.819254
78 2 0.0 12.048135 7.228881
79 2 2.409627 9.638508 7.228881
80 2 2.409627 12.048135 4.819254
81 1 1.2048135 10.8433215 10.8433215
82 1 1.2048135 13.2529485 13.2529485
83 1 3.6144405 13.2529485 10.8433215
84 1 3.6144405 10.8433215 13.2529485
85 2 0.0 9.638508 9.638508
86 2 0.0 12.048135 12.048135
87 2 2.409627 9.638508 12.048135
88 2 2.409627 12.048135 9.638508
89 1 1.2048135 10.8433215 15.6625755
90 1 1.2048135 13.2529485 18.0722025
91 1 3.6144405 13.2529485 15.6625755
92 1 3.6144405 10.8433215 18.0722025
93 2 0.0 9.638508 14.457762
94 2 0.0 12.048135 16.867389
95 2 2.409627 9.638508 16.867389
96 2 2.409627 12.048135 14.457762
97 1 1.2048135 15.6625755 1.2048135
98 1 1.2048135 18.0722025 3.6144405
99 1 3.6144405 18.0722025 1.2048135
100 1 3.6144405 15.6625755 3.6144405
101 2 0.0 14.457762 0.0
102 2 0.0 16.867389 2.409627
103 2 2.409627 14.457762 2.409627
104 2 2.409627 16.867389 0.0
105 1 1.2048135 15.6625755 6.0240675
106 1 1.2048135 18.0722025 8.4336945
107 1 3.6144405 18.0722025 6.0240675
108 1 3.6144405 15.6625755 8.4336945
109 2 0.0 14.457762 4.819254
110 2 0.0 16.867389 7.228881
111 2 2.409627 14.457762 7.228881
112 2 2.409627 16.867389 4.819254
113 1 1.2048135 15.6625755 10.8433215
114 1 1.2048135 18.0722025 13.2529485
115 1 3.6144405 18.0722025 10.8433215
116 1 3.6144405 15.6625755 13.2529485
117 2 0.0 14.457762 9.638508
118 2 0.0 16.867389 12.048135
119 2 2.409627 14.457762 12.048135
120 2 2.409627 16.867389 9.638508
121 1 1.2048135 15.6625755 15.6625755
122 1 1.2048135 18.0722025 18.0722025
123 1 3.6144405 18.0722025 15.6625755
124 1 3.6144405 15.6625755 18.0722025
125 2 0.0 14.457762 14.457762
126 2 0.0 16.867389 16.867389
127 2 2.409627 14.457762 16.867389
128 2 2.409627 16.867389 14.457762
129 1 1.2048135 20.4818295 1.2048135
130 1 1.2048135 22.8914565 3.6144405
131 1 3.6144405 22.8914565 1.2048135
132 1 3.6144405 20.4818295 3.6144405
133 2 0.0 19.277016 0.0
134 2 0.0 21.686643 2.409627
135 2 2.409627 19.277016 2.409627
136 2 2.409627 21.686643 0.0
137 1 1.2048135 20.4818295 6.0240675
138 1 1.2048135 22.8914565 8.4336945
139 1 3.6144405 22.8914565 6.0240675
140 1 3.6144405 20.4818295 8.4336945
141 2 0.0 19.277016 4.819254
142 2 0.0 21.686643 7.228881
143 2 2.409627 19.277016 7.228881
144 2 2.409627 21.686643 4.819254
145 1 1.2048135 20.4818295 10.8433215
146 1 1.2048135 22.8914565 13.2529485
147 1 3.6144405 22.8914565 10.8433215
148 1 3.6144405 20.4818295 13.2529485
149 2 0.0 19.277016 9.638508
150 2 0.0 21.686643 12.048135
151 2 2.409627 19.277016 12.048135
152 2 2.409627 21.686643 9.638508
153 1 1.2048135 20.4818295 15.6625755
154 1 1.2048135 22.8914565 18.0722025
155 1 3.6144405 22.8914565 15.6625755
156 1 3.6144405 20.4818295 18.0722025
157 2 0.0 19.277016 14.457762
158 2 0.0 21.686643 16.867389
159 2 2.409627 19.277016 16.867389
160 2 2.409627 21.686643 14.457762
161 1 1.2048135 25.3010835 1.2048135
162 1 1.2048135 27.7107105 3.6144405
163 1 3.6144405 27.7107105 1.2048135
164 1 3.6144405 25.3010835 3.6144405
165 2 0.0 24.09627 0.0
166 2 0.0 26.505897 2.409627
167 2 2.409627 24.09627 2.409627
168 2 2.409627 26.505897 0.0
169 1 1.2048135 25.3010835 6.0240675
170 1 1.2048135 27.7107105 8.4336945
171 1 3.6144405 27.7107105 6.0240675
172 1 3.6144405 25.3010835 8.4336945
173 2 0.0 24.09627 4.819254
174 2 0.0 26.505897 7.228881
175 2 2.409627 24.09627 7.228881
176 2 2.409627 26.505897 4.819254
177 1 1.2048135 25.3010835 10.8433215
178 1 1.2048135 27.7107105 13.2529485
179 1 3.6144405 27.7107105 10.8433215
180 1 3.6144405 25.3010835 13.2529485
181 2 0.0 24.09627 9.638508
182 2 0.0 26.505897 12.048135
183 2 2.409627 24.09627 12.048135
184 2 2.409627 26.505897 9.638508
185 1 1.2048135 25.3010835 15.6625755
186 1 1.2048135 27.7107105 18.0722025
187 1 3.6144405 27.7107105 15.6625755
188 1 3.6144405 25.3010835 18.0722025
189 2 0.0 24.09627 14.457762
190 2 0.0 26.505897 16.867389
191 2 2.409627 24.09627 16.867389
192 2 2.409627 26.505897 14.457762
193 1 1.2048135 30.1203375 1.2048135
194 1 1.2048135 32.5299645 3.6144405
195 1 3.6144405 32.5299645 1.2048135
196 1 3.6144405 30.1203375 3.6144405
197 2 0.0 28.915524 0.0
198 2 0.0 31.325151 2.409627
199 2 2.409627 28.915524 2.409627
200 2 2.409627 31.325151 0.0
201 1 1.2048135 30.1203375 6.0240675
202 1 1.2048135 32.5299645 8.4336945
203 1 3.6144405 32.5299645 6.0240675
204 1 3.6144405 30.1203375 8.4336945
205 2 0.0 28.915524 4.819254
206 2 0.0 31.325151 7.228881
207 2 2.409627 28.915524 7.228881
208 2 2.409627 31.325151 4.819254
209 1 1.2048135 30.1203375 10.8433215
210 1 1.2048135 32.5299645 13.2529485
211 1 3.6144405 32.5299645 10.8433215
212 1 3.6144405 30.1203375 13.2529485
213 2 0.0 28.915524 9.638508
214 2 0.0 31.325151 12.048135
215 2 2.409627 28.915524 12.048135
216 2 2.409627 31.325151 9.638508
217 1 1.2048135 30.1203375 15.6625755
218 1 1.2048135 32.5299645 18.0722025
219 1 3.6144405 32.5299645 15.6625755
220 1 3.6144405 30.1203375 18.0722025
221 2 0.0 28.915524 14.457762
222 2 0.0 31.325151 16.867389
223 2 2.409627 28.915524 16.867389
224 2 2.409627 31.325151 14.457762
225 1 1.2048135 34.9395915 1.2048135
226 1 1.2048135 37.3492185 3.6144405
227 1 3.6144405 37.3492185 1.2048135
228 1 3.6144405 34.9395915 3.6144405
229 2 0.0 33.734778 0.0
230 2 0.0 36.144405 2.409627
231 2 2.409627 33.734778 2.409627
232 2 2.409627 36.144405 0.0
233 1 1.2048135 34.9395915 6.0240675
234 1 1.2048135 37.3492185 8.4336945
235 1 3.6144405 37.3492185 6.0240675
236 1 3.6144405 34.9395915 8.4336945
237 2 0.0 33.734778 4.819254
238 2 0.0 36.144405 7.228881
239 2 2.409627 33.734778 7.228881
240 2 2.409627 36.144405 4.819254
241 1 1.2048135 34.9395915 10.8433215
242 1 1.2048135 37.3492185 13.2529485
243 1 3.6144405 37.3492185 10.8433215
244 1 3.6144405 34.9395915 13.2529485
245 2 0.0 33.734778 9.638508
246 2 0.0 36.144405 12.048135
247 2 2.409627 33.734778 12.048135
248 2 2.409627 36.144405 9.638508
249 1 1.2048135 34.9395915 15.6625755
250 1 1.2048135 37.3492185 18.0722025
251 1 3.6144405 37.3492185 15.6625755
252 1 3.6144405 34.9395915 18.0722025
253 2 0.0 33.734778 14.457762
254 2 0.0 36.144405 16.867389
255 2 2.409627 33.734778 16.867389
256 2 2.409627 36.144405 14.457762
257 1 1.2048135 39.7588455 1.2048135
258 1 1.2048135 42.1684725 3.6144405
259 1 3.6144405 42.1684725 1.2048135
260 1 3.6144405 39.7588455 3.6144405
261 2 0.0 38.554032 0.0
262 2 0.0 40.963659 2.409627
263 2 2.409627 38.554032 2.409627
264 2 2.409627 40.963659 0.0
265 1 1.2048135 39.7588455 6.0240675
266 1 1.2048135 42.1684725 8.4336945
267 1 3.6144405 42.1684725 6.0240675
268 1 3.6144405 39.7588455 8.4336945
269 2 0.0 38.554032 4.819254
270 2 0.0 40.963659 7.228881
271 2 2.409627 38.554032 7.228881
272 2 2.409627 40.963659 4.819254
273 1 1.2048135 39.7588455 10.8433215
274 1 1.2048135 42.1684725 13.2529485
275 1 3.6144405 42.1684725 10.8433215
276 1 3.6144405 39.7588455 13.2529485
277 2 0.0 38.554032 9.638508
278 2 0.0 40.963659 12.048135
279 2 2.409627 38.554032 12.048135
280 2 2.409627 40.963659 9.638508
281 1 1.2048135 39.7588455 15.6625755
282 1 1.2048135 42.1684725 18.0722025
283 1 3.6144405 42.1684725 15.6625755
284 1 3.6144405 39.7588455 18.0722025
285 2 0.0 38.554032 14.457762
286 2 0.0 40.963659 16.867389
287 2 2.409627 38.554032 16.867389
288 2 2.409627 40.963659 14.457762
289 1 1.2048135 44.5780995 1.2048135
290 1 1.2048135 46.9877265 3.6144405
291 1 3.6144405 46.9877265 1.2048135
292 1 3.6144405 44.5780995 3.6144405
293 2 0.0 43.373286 0.0
294 2 0.0 45.782913 2.409627
295 2 2.409627 43.373286 2.409627
296 2 2.409627 45.782913 0.0
297 1 1.2048135 44.5780995 6.0240675
298 1 1.2048135 46.9877265 8.4336945
299 1 3.6144405 46.9877265 6.0240675
300 1 3.6144405 44.5780995 8.4336945
301 2 0.0 43.373286 4.819254
302 2 0.0 45.782913 7.228881
303 2 2.409627 43.373286 7.228881
304 2 2.409627 45.782913 4.819254
305 1 1.2048135 44.5780995 10.8433215
306 1 1.2048135 46.9877265 13.2529485
307 1 3.6144405 46.9877265 10.8433215
308 1 3.6144405 44.5780995 13.2529485
309 2 0.0 43.373286 9.638508
310 2 0.0 45.782913 12.048135
311 2 2.409627 43.373286 12.048135
312 2 2.409627 45.782913 9.638508
313 1 1.2048135 44.5780995 15.6625755
314 1 1.2048135 46.9877265 18.0722025
315 1 3.6144405 46.9877265 15.6625755
316 1 3.6144405 44.5780995 18.0722025
317 2 0.0 43.373286 14.457762
318 2 0.0 45.782913 16.867389
319 2 2.409627 43.373286 16.867389
320 2 2.409627 45.782913 14.457762
321 1 1.2048135 49.3973535 1.2048135
322 1 1.2048135 51.8069805 3.6144405
323 1 3.6144405 51.8069805 1.2048135
324 1 3.6144405 49.3973535 3.6144405
325 2 0.0 48.19254 0.0
326 2 0.0 50.602167 2.409627
327 2 2.409627 48.19254 2.409627
328 2 2.409627 50.602167 0.0
329 1 1.2048135 49.3973535 6.0240675
330 1 1.2048135 51.8069805 8.4336945
331 1 3.6144405 51.8069805 6.0240675
332 1 3.6144405 49.3973535 8.4336945
333 2 0.0 48.19254 4.819254
334 2 0.0 50.602167 7.228881
335 2 2.409627 48.19254 7.228881
336 2 2.409627 50.602167 4.819254
337 1 1.2048135 49.3973535 10.8433215
338 1 1.2048135 51.8069805 13.2529485
339 1 3.6144405 51.8069805 10.8433215
340 1 3.6144405 49.3973535 13.2529485
341 2 0.0 48.19254 9.638508
342 2 0.0 50.602167 12.048135
343 2 2.409627 48.19254 12.048135
344 2 2.409627 50.602167 9.638508
345 1 1.2048135 49.3973535 15.6625755
346 1 1.2048135 51.8069805 18.0722025
347 1 3.6144405 51.8069805 15.6625755
348 1 3.6144405 49.3973535 18.0722025
349 2 0.0 48.19254 14.457762
350 2 0.0 50.602167 16.867389
351 2 2.409627 48.19254 16.867389
352 2 2.409627 50.602167 14.457762
353 1 1.2048135 54.2166075 1.2048135
354 1 1.2048135 56.6262345 3.6144405
355 1 3.6144405 56.6262345 1.2048135
356 1 3.6144405 54.2166075 3.6144405
357 2 0.0 53.011794 0.0
358 2 0.0 55.421421 2.409627
359 2 2.409627 53.011794 2.409627
360 2 2.409627 55.421421 0.0
361 1 1.2048135 54.2166075 6.0240675
362 1 1.2048135 56.6262345 8.4336945
363 1 3.6144405 56.6262345 6.0240675
364 1 3.6144405 54.2166075 8.4336945
365 2 0.0 53.011794 4.819254
366 2 0.0 55.421421 7.228881
367 2 2.409627 53.011794 7.228881
368 2 2.409627 55.421421 4.819254
369 1 1.2048135 54.2166075 10.8433215
370 1 1.2048135 56.6262345 13.2529485
371 1 3.6144405 56.6262345 10.8433215
372 1 3.6144405 54.2166075 13.2529485
373 2 0.0 53.011794 9.638508
374 2 0.0 55.421421 12.048135
375 2 2.409627 53.011794 12.048135
376 2 2.409627 55.421421 9.638508
377 1 1.2048135 54.2166075 15.6625755
378 1 1.2048135 56.6262345 18.0722025
379 1 3.6144405 56.6262345 15.6625755
380 1 3.6144405 54.2166075 18.0722025
381 2 0.0 53.011794 14.457762
382 2 0.0 55.421421 16.867389
383 2 2.409627 53.011794 16.867389
384 2 2.409627 55.421421 14.457762
385 1 1.2048135 59.0358615 1.2048135
386 1 1.2048135 61.4454885 3.6144405
387 1 3.6144405 61.4454885 1.2048135
388 1 3.6144405 59.0358615 3.6144405
389 2 0.0 57.831048 0.0
390 2 0.0 60.240675 2.409627
391 2 2.409627 57.831048 2.409627
392 2 2.409627 60.240675 0.0
393 1 1.2048135 59.0358615 6.0240675
394 1 1.2048135 61.4454885 8.4336945
395 1 3.6144405 61.4454885 6.0240675
396 1 3.6144405 59.0358615 8.4336945
397 2 0.0 57.831048 4.819254
398 2 0.0 60.240675 7.228881
399 2 2.409627 57.831048 7.228881
400 2 2.409627 60.240675 4.819254
401 1 1.2048135 59.0358615 10.8433215
402 1 1.2048135 61.4454885 13.2529485
403 1 3.6144405 61.4454885 10.8433215
404 1 3.6144405 59.0358615 13.2529485
405 2 0.0 57.831048 9.638508
406 2 0.0 60.240675 12.048135
407 2 2.409627 57.831048 12.048135
408 2 2.409627 60.240675 9.638508
409 1 1.2048135 59.0358615 15.6625755
410 1 1.2048135 61.4454885 18.0722025
411 1 3.6144405 61.4454885 15.6625755
412 1 3.6144405 59.0358615 18.0722025
413 2 0.0 57.831048 14.457762
414 2 0.0 60.240675 16.867389
415 2 2.409627 57.831048 16.867389
416 2 2.409627 60.240675 14.457762
417 1 1.2048135 63.8551155 1.2048135
418 1 1.2048135 66.2647425 3.6144405
419 1 3.6144405 66.2647425 1.2048135
420 1 3.6144405 63.8551155 3.6144405
421 2 0.0 62.650302 0.0
422 2 0.0 65.059929 2.409627
423 2 2.409627 62.650302 2.409627
424 2 2.409627 65.059929 0.0
425 1 1.2048135 63.8551155 6.0240675
426 1 1.2048135 66.2647425 8.4336945
427 1 3.6144405 66.2647425 6.0240675
428 1 3.6144405 63.8551155 8.4336945
429 2 0.0 62.650302 4.819254
430 2 0.0 65.059929 7.228881
431 2 2.409627 62.650302 7.228881
432 2 2.409627 65.059929 4.819254
433 1 1.2048135 63.8551155 10.8433215
434 1 1.2048135 66.2647425 13.2529485
435 1 3.6144405 66.2647425 10.8433215
436 1 3.6144405 63.8551155 13.2529485
437 2 0.0 62.650302 9.638508
438 2 0.0 65.059929 12.048135
439 2 2.409627 62.650302 12.048135
440 2 2.409627 65.059929 9.638508
441 1 1.2048135 63.8551155 15.6625755
442 1 1.2048135 66.2647425 18.0722025
443 1 3.6144405 66.2647425 15.6625755
444 1 3.6144405 63.8551155 18.0722025
445 2 0.0 62.650302 14.457762
446 2 0.0 65.059929 16.867389
447 2 2.409627 62.650302 16.867389
448 2 2.409627 65.059929 14.457762
449 1 1.2048135 68.6743695 1.2048135
450 1 1.2048135 71.0839965 3.6144405
451 1 3.6144405 71.0839965 1.2048135
452 1 3.6144405 68.6743695 3.6144405
453 2 0.0 67.469556 0.0
454 2 0.0 69.879183 2.409627
455 2 2.409627 67.469556 2.409627
456 2 2.409627 69.879183 0.0
457 1 1.2048135 68.6743695 6.0240675
458 1 1.2048135 71.0839965 8.4336945
459 1 3.6144405 71.0839965 6.0240675
460 1 3.6144405 68.6743695 8.4336945
461 2 0.0 67.469556 4.819254
462 2 0.0 69.879183 7.228881
463 2 2.409627 67.469556 7.228881
464 2 2.409627 69.879183 4.819254
465 1 1.2048135 68.6743695 10.8433215
466 1 1.2048135 71.0839965 13.2529485
467 1 3.6144405 71.0839965 10.8433215
468 1 3.6144405 68.6743695 13.2529485
469 2 0.0 67.469556 9.638508
470 2 0.0 69.879183 12.048135
471 2 2.409627 67.469556 12.048135
472 2 2.409627 69.879183 9.638508
473 1 1.2048135 68.6743695 15.6625755
474 1 1.2048135 71.0839965 18.0722025
475 1 3.6144405 71.0839965 15.6625755
476 1 3.6144405 68.6743695 18.0722025
477 2 0.0 67.469556 14.457762
478 2 0.0 69.879183 16.867389
479 2 2.409627 67.469556 16.867389
480 2 2.409627 69.879183 14.457762
481 1 1.2048135 73.4936235 1.2048135
482 1 1.2048135 75.9032505 3.6144405
483 1 3.6144405 75.9032505 1.2048135
484 1 3.6144405 73.4936235 3.6144405
485 2 0.0 72.28881 0.0
486 2 0.0 74.698437 2.409627
487 2 2.409627 72.28881 2.409627
488 2 2.409627 74.698437 0.0
489 1 1.2048135 73.4936235 6.0240675
490 1 1.2048135 75.9032505 8.4336945
491 1 3.6144405 75.9032505 6.0240675
492 1 3.6144405 73.4936235 8.4336945
493 2 0.0 72.28881 4.819254
494 2 0.0 74.698437 7.228881
495 2 2.409627 72.28881 7.228881
496 2 2.409627 74.698437 4.819254
497 1 1.2048135 73.4936235 10.8433215
498 1 1.2048135 75.9032505 13.2529485
499 1 3.6144405 75.9032505 10.8433215
500 1 3.6144405 73.4936235 13.2529485
501 2 0.0 72.28881 9.638508
502 2 0.0 74.698437 12.048135
503 2 2.409627 72.28881 12.048135
504 2 2.409627 74.698437 9.638508
505 1 1.2048135 73.4936235 15.6625755
506 1 1.2048135 75.9032505 18.0722025
507 1 3.6144405 75.9032505 15.6625755
508 1 3.6144405 73.4936235 18.0722025
509 2 0.0 72.28881 14.457762
510 2 0.0 74.698437 16.867389
511 2 2.409627 72.28881 16.867389
512 2 2.409627 74.698437 14.457762
513 1 1.2048135 78.3128775 1.2048135
514 1 1.2048135 80.7225045 3.6144405
515 1 3.6144405 80.7225045 1.2048135
516 1 3.6144405 78.3128775 3.6144405
517 2 0.0 77.108064 0.0
518 2 0.0 79.517691 2.409627
519 2 2.409627 77.108064 2.409627
520 2 2.409627 79.517691 0.0
521 1 1.2048135 78.3128775 6.0240675
522 1 1.2048135 80.7225045 8.4336945
523 1 3.6144405 80.7225045 6.0240675
524 1 3.6144405 78.3128775 8.4336945
525 2 0.0 77.108064 4.819254
526 2 0.0 79.517691 7.228881
527 2 2.409627 77.108064 7.228881
528 2 2.409627 79.517691 4.819254
529 1 1.2048135 78.3128775 10.8433215
530 1 1.2048135 80.7225045 13.2529485
531 1 3.6144405 80.7225045 10.8433215
532 1 3.6144405 78.3128775 13.2529485
533 2 0.0 77.108064 9.638508
534 2 0.0 79.517691 12.048135
535 2 2.409627 77.108064 12.048135
536 2 2.409627 79.517691 9.638508
537 1 1.2048135 78.3128775 15.6625755
538 1 1.2048135 80.7225045 18.0722025
539 1 3.6144405 80.7225045 15.6625755
540 1 3.6144405 78.3128775 18.0722025
541 2 0.0 77.108064 14.457762
542 2 0.0 79.517691 16.867389
543 2 2.409627 77.108064 16.867389
544 2 2.409627 79.517691 14.457762
545 1 1.2048135 83.1321315 1.2048135
546 1 1.2048135 85.5417585 3.6144405
547 1 3.6144405 85.5417585 1.2048135
548 1 3.6144405 83.1321315 3.6144405
549 2 0.0 81.927318 0.0
550 2 0.0 84.336945 2.409627
551 2 2.409627 81.927318 2.409627
552 2 2.409627 84.336945 0.0
553 1 1.2048135 83.1321315 6.0240675
554 1 1.2048135 85.5417585 8.4336945
555 1 3.6144405 85.5417585 6.0240675
556 1 3.6144405 83.1321315 8.4336945
557 2 0.0 81.927318 4.819254
558 2 0.0 84.336945 7.228881
559 2 2.409627 81.927318 7.228881
560 2 2.409627 84.336945 4.819254
561 1 1.2048135 83.1321315 10.8433215
562 1 1.2048135 85.5417585 13.2529485
563 1 3.6144405 85.5417585 10.8433215
564 1 3.6144405 83.1321315 13.2529485
565 2 0.0 81.927318 9.638508
566 2 0.0 84.336945 12.048135
567 2 2.409627 81.927318 12.048135
568 2 2.409627 84.336945 9.638508
569 1 1.2048135 83.1321315 15.6625755
570 1 1.2048135 85.5417585 18.0722025
571 1 3.6144405 85.5417585 15.6625755
572 1 3.6144405 83.1321315 18.0722025
573 2 0.0 81.927318 14.457762
574 2 0.0 84.336945 16.867389
575 2 2.409627 81.927318 16.867389
576 2 2.409627 84.336945 14.457762
577 1 1.2048135 87.9513855 1.2048135
578 1 1.2048135 90.3610125 3.6144405
579 1 3.6144405 90.3610125 1.2048135
580 1 3.6144405 87.9513855 3.6144405
581 2 0.0 86.746572 0.0
582 2 0.0 89.156199 2.409627
583 2 2.409627 86.746572 2.409627
584 2 2.409627 89.156199 0.0
585 1 1.2048135 87.9513855 6.0240675
586 1 1.2048135 90.3610125 8.4336945
587 1 3.6144405 90.3610125 6.0240675
588 1 3.6144405 87.9513855 8.4336945
589 2 0.0 86.746572 4.819254
590 2 0.0 89.156199 7.228881
591 2 2.409627 86.746572 7.228881
592 2 2.409627 89.156199 4.819254
593 1 1.2048135 87.9513855 10.8433215
594 1 1.2048135 90.3610125 13.2529485
595 1 3.6144405 90.3610125 10.8433215
596 1 3.6144405 87.9513855 13.2529485
597 2 0.0 86.746572 9.638508
598 2 0.0 89.156199 12.048135
599 2 2.409627 86.746572 12.048135
600 2 2.409627 89.156199 9.638508
601 1 1.2048135 87.9513855 15.6625755
602 1 1.2048135 90.3610125 18.0722025
603 1 3.6144405 90.3610125 15.6625755
604 1 3.6144405 87.9513855 18.0722025
605 2 0.0 86.746572 14.457762
606 2 0.0 89.156199 16.867389
607 2 2.409627 86.746572 16.867389
608 2 2.409627 89.156199 14.457762
609 1 1.2048135 92.7706395 1.2048135
610 1 1.2048135 95.1802665 3.6144405
611 1 3.6144405 95.1802665 1.2048135
612 1 3.6144405 92.7706395 3.6144405
613 2 0.0 91.565826 0.0
614 2 0.0 93.975453 2.409627
615 2 2.409627 91.565826 2.409627
616 2 2.409627 93.975453 0.0
617 1 1.2048135 92.7706395 6.0240675
618 1 1.2048135 95.1802665 8.4336945
619 1 3.6144405 95.1802665 6.0240675
620 1 3.6144405 92.7706395 8.4336945
621 2 0.0 91.565826 4.819254
622 2 0.0 93.975453 7.228881
623 2 2.409627 91.565826 7.228881
624 2 2.409627 93.975453 4.819254
625 1 1.2048135 92.7706395 10.8433215
626 1 1.2048135 95.1802665 13.2529485
627 1 3.6144405 95.1802665 10.8433215
628 1 3.6144405 92.7706395 13.2529485
629 2 0.0 91.565826 9.638508
630 2 0.0 93.975453 12.048135
631 2 2.409627 91.565826 12.048135
632 2 2.409627 93.975453 9.638508
633 1 1.2048135 92.7706395 15.6625755
634 1 1.2048135 95.1802665 18.0722025
635 1 3.6144405 95.1802665 15.6625755
636 1 3.6144405 92.7706395 18.0722025
637 2 0.0 91.565826 14.457762
638 2 0.0 93.975453 16.867389
639 2 2.409627 91.565826 16.867389
640 2 2.409627 93.975453 14.457762
641 1 1.2048135 97.5898935 1.2048135
642 1 1.2048135 99.9995205 3.6144405
643 1 3.6144405 99.9995205 1.2048135
644 1 3.6144405 97.5898935 3.6144405
645 2 0.0 96.38508 0.0
646 2 0.0 98.794707 2.409627
647 2 2.409627 96.38508 2.409627
648 2 2.409627 98.794707 0.0
649 1 1.2048135 97.5898935 6.0240675
650 1 1.2048135 99.9995205 8.4336945
651 1 3.6144405 99.9995205 6.0240675
652 1 3.6144405 97.5898935 8.4336945
653 2 0.0 96.38508 4.819254
654 2 0.0 98.794707 7.228881
655 2 2.409627 96.38508 7.228881
656 2 2.409627 98.794707 4.819254
657 1 1.2048135 97.5898935 10.8433215
658 1 1.2048135 99.9995205 13.2529485
659 1 3.6144405 99.9995205 10.8433215
660 1 3.6144405 97.5898935 13.2529485
661 2 0.0 96.38508 9.638508
662 2 0.0 98.794707 12.048135
663 2 2.409627 96.38508 12.048135
664 2 2.409627 98.794707 9.638508
665 1 1.2048135 97.5898935 15.6625755
666 1 1.2048135 99.9995205 18.0722025
667 1 3.6144405 99.9995205 15.6625755
668 1 3.6144405 97.5898935 18.0722025
669 2 0.0 96.38508 14.457762
670 2 0.0 98.794707 16.867389
671 2 2.409627 96.38508 16.867389
672 2 2.409627 98.794707 14.457762
673 1 1.2048135 102.4091475 1.2048135
674 1 1.2048135 104.8187745 3.6144405
675 1 3.6144405 104.8187745 1.2048135
676 1 3.6144405 102.4091475 3.6144405
677 2 0.0 101.204334 0.0
678 2 0.0 103.613961 2.409627
679 2 2.409627 101.204334 2.409627
680 2 2.409627 103.613961 0.0
681 1 1.2048135 102.4091475 6.0240675
682 1 1.2048135 104.8187745 8.4336945
683 1 3.6144405 104.8187745 6.0240675
684 1 3.6144405 102.4091475 8.4336945
685 2 0.0 101.204334 4.819254
686 2 0.0 103.613961 7.228881
687 2 2.409627 101.204334 7.228881
688 2 2.409627 103.613961 4.819254
689 1 1.2048135 102.4091475 10.8433215
690 1 1.2048135 104.8187745 13.2529485
691 1 3.6144405 104.8187745 10.8433215
692 1 3.6144405 102.4091475 13.2529485
693 2 0.0 101.204334 9.638508
694 2 0.0 103.613961 12.048135
695 2 2.409627 101.204334 12.048135
696 2 2.409627 103.613961 9.638508
697 1 1.2048135 102.4091475 15.6625755
698 1 1.2048135 104.8187745 18.0722025
699 1 3.6144405 104.8187745 15.6625755
700 1 3.6144405 102.4091475 18.0722025
701 2 0.0 101.204334 14.457762
702 2 0.0 103.613961 16.867389
703 2 2.409627 101.204334 16.867389
704 2 2.409627 103.613961 14.457762
705 1 1.2048135 107.2284015 1.2048135
706 1 1.2048135 109.6380285 3.6144405
707 1 3.6144405 109.6380285 1.2048135
708 1 3.6144405 107.2284015 3.6144405
709 2 0.0 106.023588 0.0
710 2 0.0 108.433215 2.409627
711 2 2.409627 106.023588 2.409627
712 2 2.409627 108.433215 0.0
713 1 1.2048135 107.2284015 6.0240675
714 1 1.2048135 109.6380285 8.4336945
715 1 3.6144405 109.6380285 6.0240675
716 1 3.6144405 107.2284015 8.4336945
717 2 0.0 106.023588 4.819254
718 2 0.0 108.433215 7.228881
719 2 2.409627 106.023588 7.228881
720 2 2.409627 108.433215 4.819254
721 1 1.2048135 107.2284015 10.8433215
722 1 1.2048135 109.6380285 13.2529485
723 1 3.6144405 109.6380285 10.8433215
724 1 3.6144405 107.2284015 13.2529485
725 2 0.0 106.023588 9.638508
726 2 0.0 108.433215 12.048135
727 2 2.409627 106.023588 12.048135
728 2 2.409627 108.433215 9.638508
729 1 1.2048135 107.2284015 15.6625755
730 1 1.2048135 109.6380285 18.0722025
731 1 3.6144405 109.6380285 15.6625755
732 1 3.6144405 107.2284015 18.0722025
733 2 0.0 106.023588 14.457762
734 2 0.0 108.433215 16.867389
735 2 2.409627 106.023588 16.867389
736 2 2.409627 108.433215 14.457762
737 1 1.2048135 112.0476555 1.2048135
738 1 1.2048135 114.4572825 3.6144405
739 1 3.6144405 114.4572825 1.2048135
740 1 3.6144405 112.0476555 3.6144405
741 2 0.0 110.842842 0.0
742 2 0.0 113.252469 2.409627
743 2 2.409627 110.842842 2.409627
744 2 2.409627 113.252469 0.0
745 1 1.2048135 112.0476555 6.0240675
746 1 1.2048135 114.4572825 8.4336945
747 1 3.6144405 114.4572825 6.0240675
748 1 3.6144405 112.0476555 8.4336945
749 2 0.0 110.842842 4.819254
750 2 0.0 113.252469 7.228881
751 2 2.409627 110.842842 7.228881
752 2 2.409627 113.252469 4.819254
753 1 1.2048135 112.0476555 10.8433215
754 1 1.2048135 114.4572825 13.2529485
755 1 3.6144405 114.4572825 10.8433215
756 1 3.6144405 112.0476555 13.2529485
757 2 0.0 110.842842 9.638508
758 2 0.0 113.252469 12.048135
759 2 2.409627 110.842842 12.048135
760 2 2.409627 113.252469 9.638508
761 1 1.2048135 112.0476555 15.6625755
762 1 1.2048135 114.4572825 18.0722025
763 1 3.6144405 114.4572825 15.6625755
764 1 3.6144405 112.0476555 18.0722025
765 2 0.0 110.842842 14.457762
766 2 0.0 113.252469 16.867389
767 2 2.409627 110.842842 16.867389
768 2 2.409627 113.252469 14.457762
769 1 1.2048135 116.8669095 1.2048135
770 1 1.2048135 119.2765365 3.6144405
771 1 3.6144405 119.2765365 1.2048135
772 1 3.6144405 116.8669095 3.6144405
773 2 0.0 115.662096 0.0
774 2 0.0 118.071723 2.409627
775 2 2.409627 115.662096 2.409627
776 2 2.409627 118.071723 0.0
777 1 1.2048135 116.8669095 6.0240675
778 1 1.2048135 119.2765365 8.4336945
779 1 3.6144405 119.2765365 6.0240675
780 1 3.6144405 116.8669095 8.4336945
781 2 0.0 115.662096 4.819254
782 2 0.0 118.071723 7.228881
783 2 2.409627 115.662096 7.228881
784 2 2.409627 118.071723 4.819254
785 1 1.2048135 116.8669095 10.8433215
786 1 1.2048135 119.2765365 13.2529485
787 1 3.6144405 119.2765365 10.8433215
788 1 3.6144405 116.8669095 13.2529485
789 2 0.0 115.662096 9.638508
790 2 0.0 118.071723 12.048135
791 2 2.409627 115.662096 12.048135
792 2 2.409627 118.071723 9.638508
793 1 1.2048135 116.8669095 15.6625755
794 1 1.2048135 119.2765365 18.0722025
795 1 3.6144405 119.2765365 15.6625755
796 1 3.6144405 116.8669095 18.0722025
797 2 0.0 115.662096 14.457762
798 2 0.0 118.071723 16.867389
799 2 2.409627 115.662096 16.867389
800 2 2.409627 118.071723 14.457762
801 1 1.2048135 121.6861635 1.2048135
802 1 1.2048135 124.0957905 3.6144405
803 1 3.6144405 124.0957905 1.2048135
804 1 3.6144405 121.6861635 3.6144405
805 2 0.0 120.48135 0.0
806 2 0.0 122.890977 2.409627
807 2 2.409627 120.48135 2.409627
808 2 2.409627 122.890977 0.0
809 1 1.2048135 121.6861635 6.0240675
810 1 1.2048135 124.0957905 8.4336945
811 1 3.6144405 124.0957905 6.0240675
812 1 3.6144405 121.6861635 8.4336945
813 2 0.0 120.48135 4.819254
814 2 0.0 122.890977 7.228881
815 2 2.409627 120.48135 7.228881
816 2 2.409627 122.890977 4.819254
817 1 1.2048135 121.6861635 10.8433215
818 1 1.2048135 124.0957905 13.2529485
819 1 3.6144405 124.0957905 10.8433215
820 1 3.6144405 121.6861635 13.2529485
821 2 0.0 120.48135 9.638508
822 2 0.0 122.890977 12.048135
823 2 2.409627 120.48135 12.048135
824 2 2.409627 122.890977 9.638508
825 1 1.2048135 121.6861635 15.6625755
826 1 1.2048135 124.0957905 18.0722025
827 1 3.6144405 124.0957905 15.6625755
828 1 3.6144405 121.6861635 18.0722025
829 2 0.0 120.48135 14.457762
830 2 0.0 122.890977 16.867389
831 2 2.409627 120.48135 16.867389
832 2 2.409627 122.890977 14.457762
833 1 1.2048135 126.5054175 1.2048135
834 1 1.2048135 128.9150445 3.6144405
835 1 3.6144405 128.9150445 1.2048135
836 1 3.6144405 126.5054175 3.6144405
837 2 0.0 125.300604 0.0
838 2 0.0 127.710231 2.409627
839 2 2.409627 125.300604 2.409627
840 2 2.409627 127.710231 0.0
841 1 1.2048135 126.5054175 6.0240675
842 1 1.2048135 128.9150445 8.4336945
843 1 3.6144405 128.9150445 6.0240675
844 1 3.6144405 126.5054175 8.4336945
845 2 0.0 125.300604 4.819254
846 2 0.0 127.710231 7.228881
847 2 2.409627 125.300604 7.228881
848 2 2.409627 127.710231 4.819254
849 1 1.2048135 126.5054175 10.8433215
850 1 1.2048135 128.9150445 13.2529485
851 1 3.6144405 128.9150445 10.8433215
852 1 3.6144405 126.5054175 13.2529485
853 2 0.0 125.300604 9.638508
854 2 0.0 127.710231 12.048135
855 2 2.409627 125.300604 12.048135
856 2 2.409627 127.710231 9.638508
857 1 1.2048135 126.5054175 15.6625755
858 1 1.2048135 128.9150445 18.0722025
859 1 3.6144405 128.9150445 15.6625755
860 1 3.6144405 126.5054175 18.0722025
861 2 0.0 125.300604 14.457762
862 2 0.0 127.710231 16.867389
863 2 2.409627 125.300604 16.867389
864 2 2.409627 127.710231 14.457762
865 1 1.2048135 131.3246715 1.2048135
866 1 1.2048135 133.7342985 3.6144405
867 1 3.6144405 133.7342985 1.2048135
868 1 3.6144405 131.3246715 3.6144405