128
Config_type=OUTCAR Weight=1.0 Lattice="0.000000000 9.486025501 9.486025501 9.486025501 0.000000000 9.486025501 9.486025501 9.486025501 0.000000000" Energy=-715.666794 Virial="92.52983 -2.21486 -8.13646 -2.21486 93.14235 -1.69294 -8.13646 -1.69294 90.42013" Properties=species:S:1:pos:R:3:force:R:3
B	      9.43857     18.88985      9.45455         0.662580      1.190694     -0.673919
B	      9.43986      2.43266     11.79327         2.751572     -1.980768      2.291147
B	      0.09212      4.73647      4.78136        -0.492154      0.690750     -0.671670
B	      9.50241      7.07322     16.51096        -1.447996      1.027322      1.916850
B	      2.31630      0.02699      2.29262         1.069027     -0.062095      1.291463
B	      2.40128      2.31304      4.66754        -1.743196      1.355044      2.258701
B	     11.79122     14.19221      7.04935         1.745696      0.107428      0.951553
B	     11.80307     16.65081      9.55316         0.799085     -1.189417     -0.853794
B	      4.83253      9.45609     14.19601        -2.621766      0.271953      0.319251
B	     14.13915     11.90070      7.10704         1.812784     -1.589687      1.684358
B	     14.24635     14.20918      9.58249         0.121713      0.333877     -1.676998
B	      4.71377      7.17991     11.78776         2.129059     -2.752526      2.583734
B	     16.54277      9.42687      7.17076         0.205460      0.194612     -1.585189
B	     16.57570     11.77919      9.54299         2.190679      2.099306     -1.989687
B	     16.60525     14.23686     11.95711         0.581543      0.251731     -1.098454
B	     16.59645     16.63127     14.32411         0.275646     -0.559575     -0.530554
B	     11.87047     11.81999     18.88027        -0.041601      0.718624      0.362945
B	     11.88959      4.71404     11.76735        -0.497465      0.817544      0.218927
B	     11.76997      7.15663     14.25270         1.624654     -0.657491     -0.073861
B	      2.36849      9.38617      7.11897         0.175097      1.728250     -0.181367
B	      4.77815     11.81520     11.77402        -1.285080      1.768053      1.629080
B	      4.75030      4.64905      4.77644         0.184605      0.878659     -0.587926
B	      4.70123      7.08290      7.02934         1.554782     -0.678805      1.977719
B	      4.75368      9.42718      9.56617        -0.978638      1.035682     -1.103938
B	      7.20767     11.89120     14.24278        -0.991076     -0.429812     -0.367350
B	      7.04013      4.68990      7.07396         0.775410      1.099115      1.002986
B	      7.12539      7.19831      9.43253        -0.905153     -1.167242     -0.480316
B	      7.19806      9.43108     11.85903        -1.628882      0.725726     -0.272932
B	      9.56852     11.85536     16.54407        -1.467822      0.720404      2.220561
B	      9.38990      4.74271      9.51359         1.848775     -0.953177     -0.236095
B	      9.40032      7.09188     11.90382         1.252210      1.041439     -0.878336
B	      9.44893      9.50346     14.32025         1.078127      1.512095     -2.776121
B	      4.80107     14.16350      9.43771        -1.581372      1.787541      2.227351
B	     14.14116      7.13297     11.81353         0.866268     -0.074487      1.989455
B	      4.74777      9.41090      4.80885         0.132115      2.351889     -0.362458
B	      4.72480     11.89009      7.20730         1.498863      0.734509     -2.429371
B	      7.17459     14.25381     11.78152        -1.398719      1.134927      1.165855
B	      7.08477      7.03229      4.79152         0.394405      2.304754     -1.421309
B	      7.20684      9.50765      7.14630        -2.692494     -1.200115     -1.589975
B	      7.19493     11.82356      9.53482        -1.266051      0.077231     -0.671486
B	      9.41592      4.67312      4.75717         0.176100      2.031491      0.056268
B	      9.52446      7.20642      7.12327        -1.186937     -1.784037     -0.137154
B	      9.58261      9.47960      9.46090        -1.969293      1.070272      0.159596
B	      9.50176     11.93494     11.79621         0.890908     -0.893095      2.314890
B	     11.93724     14.27792     16.56509        -0.943198      0.243121     -0.119191
B	     11.92627      7.08914      9.55408        -1.206292      0.886710     -1.350848
B	     11.88309      9.40500     11.80479        -1.841787      3.558342      2.104167
B	     11.78557     11.92199     14.20321         0.272865     -1.518118      0.831987
B	      7.12686     16.50223      9.49953         0.098388      0.841839     -1.342699
B	     16.56315      9.57874     11.85505         0.906377     -0.945042      0.404533
B	     16.54998     11.92059     14.28791         1.646267     -0.583218     -0.889632
B	      7.07626     14.24804      7.20494        -0.053275     -0.303869     -2.184406
B	      9.52880      7.20309      2.35345        -2.148370     -1.628291     -0.261595
B	      9.49358      9.48178      4.84264        -0.658129     -0.892860     -1.722840
B	      9.55330     11.84186      7.04221        -1.304498      1.076586      1.251103
B	      9.38852     14.22063      9.46549         1.614823     -0.959698      0.566229
B	     11.82416      7.17008      4.66686         1.087084     -1.097007      1.160436
B	     11.87843      9.41267      7.17919         0.828094      1.678160     -0.732675
B	     11.82520     11.83041      9.57669         0.864547      0.715578     -1.392515
B	     11.90626     14.14176     11.85481        -0.655907      1.137325      0.192832
B	     14.24362     16.51656     16.65283        -0.714121      0.603235     -0.419507
B	     14.30100      9.47500      9.55458        -1.383174     -0.459762     -1.134290
B	     14.16069     11.83366     11.78855         1.853501      0.014598      1.063754
B	     14.15669     14.28039     14.27519         1.768163     -1.869202     -0.498305
As	      1.23518      1.20654      1.10134        -1.886846     -0.572820      0.138002
As	      1.26632      3.60368      3.52045        -0.996989     -0.869899     -0.034166
As	      1.16024      5.98333      6.00859         1.439603     -1.704793     -2.232674
As	      1.13021      8.22937      8.25682         0.922418      0.647174      0.742619
As	      3.50961      1.27071      3.57990         2.140531     -3.103016     -2.282390
As	      3.57837      3.45973      5.93519        -1.771878      1.729328     -1.078552
As	      3.61838      5.84964      8.29876        -1.467862      0.919194     -0.019930
As	      3.59758      8.26695     10.75700        -2.437364      1.823717     -1.993175
As	      5.86623      1.13900      5.86629         1.682202      1.461004      1.594076
As	      5.92750      3.58293      8.39691        -0.073792     -1.104251     -1.560569
As	      5.96639      5.93120     10.57916         0.068833      0.837995      2.476052
As	      5.93817      8.25374     13.13130         0.822382      0.279703     -2.570479
As	      8.27304      1.12205      8.22816         0.436057      1.010515      1.168160
As	      8.36038      3.51387     10.73889        -2.805039      1.714408     -1.629260
As	      8.31936      5.95661     13.13742        -0.379387     -0.571417     -0.335647
As	      8.38315      8.34175     15.37723        -2.585460     -1.188522      1.876264
As	      3.51222      3.52678      1.10183         1.306459     -0.064783      0.545688
As	      3.54387      5.83620      3.59265        -0.382791      1.167403     -0.610858
As	      3.64298      8.26524      5.96651        -2.954446      0.481212     -0.984006
As	      3.61279     10.74717      8.26517        -1.339703     -3.265872      0.849954
As	      5.99882      3.62028      3.52379        -0.456045     -1.252388     -0.014857
As	      5.93994      5.97677      5.84175        -1.638531     -2.648988      2.232207
As	      5.84790      8.35897      8.29629         1.214875     -0.847113     -0.868434
As	      5.84476     10.70081     10.62595         2.764965     -1.715128      0.605513
As	      8.35736      3.55924      6.01084        -1.296978     -0.401352     -0.669872
As	      8.28171      5.88455      8.38802        -0.446439      1.249528     -2.658823
As	      8.28492      8.29536     10.57309         1.087306      0.465509      1.669173
As	      8.32556     10.71277     12.95565         0.008838     -0.602080      1.317123
As	     10.75683      3.57137      8.24960        -1.407739      0.444751      0.261107
As	     10.62895      5.95990     10.58695         0.111956     -0.542726      1.990765
As	     10.69713      8.39288     13.07125        -1.325522     -1.235387     -0.306645
As	     10.58570     10.72259     15.41751         2.746886     -1.848609     -0.576760
As	      5.88174      6.01576      1.17090         0.297579     -2.090528      0.325914
As	      5.93426      8.35324      3.64190        -0.098985     -1.038471     -2.129643
As	      6.01009     10.70679      5.88228        -1.732591     -0.894308      2.319582
As	      5.93138     13.09043      8.38842         1.692267     -1.996579     -1.563615
As	      8.22976      5.98761      3.59683         1.805270     -1.135462     -1.479943
As	      8.22476      8.23511      5.92160         1.254261      0.832489      0.738439
As	      8.26923     10.64842      8.20813         2.420861      1.534840      2.178340
As	      8.30664     13.00074     10.76205        -0.421873      1.350656     -2.562576
As	     10.61937      5.98050      5.86111         0.740755     -0.250992      0.962937
As	     10.64370      8.38338      8.25227         1.475962     -2.225587      1.360099
As	     10.62124     10.75729     10.66024         0.663367     -2.056604      0.730001
As	     10.66089     13.07698     13.13680        -0.447088      0.161885     -2.703175
As	     13.10033      5.91900      8.38182        -0.642182     -0.448845     -1.044283
As	     12.97491      8.34129     10.73213         2.213173     -1.147007     -1.909183
As	     13.01863     10.75621     13.09086         0.171037     -2.035217     -0.888192
As	     12.99916     13.02962     15.32610         0.855217      0.371375      2.240482
As	      8.27292      8.26374      1.09678        -0.311279      0.754544      2.000812
As	      8.30912     10.74671      3.62289         0.257364     -0.785426     -0.830823
As	      8.29150     13.09181      5.84177         0.508014     -0.207087      2.338300
As	      8.34748     15.34575      8.24546        -1.179330      1.384947      0.282960
As	     10.68055      8.23920      3.47856         0.059721      3.066163      1.128144
As	     10.64362     10.60730      5.99982         2.022860      0.169172     -1.294184
As	     10.76156     13.03881      8.34409        -2.053137     -0.125526     -0.587347
As	     10.57240     15.42345     10.66473         1.495937     -0.829579      0.389722
As	     13.09146      8.25271      6.00237        -0.714293      0.543092     -1.169548
As	     13.01488     10.71165      8.38747         0.549571     -1.355963     -0.880703
As	     13.09208     12.99234     10.60090        -1.385538      0.697289      1.880019
As	     13.08351     15.36617     13.12086        -1.408280      1.589722     -2.877025
As	     15.37248      8.21070      8.28661         0.976381      0.681071      1.066659
As	     15.45625     10.70103     10.58561        -1.679882     -1.336149      2.917844
As	     15.49690     13.00561     13.08616        -2.967747      1.270451     -1.234162
As	     15.32416     15.43739     15.37907         1.849282     -0.727681      1.755572
128
Config_type=OUTCAR Weight=1.0 Lattice="0.000000000 9.486025501 9.486025501 9.486025501 0.000000000 9.486025501 9.486025501 9.486025501 0.000000000" Energy=-716.116635 Virial="89.96391 -15.69528 -5.12583 -15.69528 91.79582 5.10158 -5.12583 5.10158 91.52307" Properties=species:S:1:pos:R:3:force:R:3
B	      9.46691     18.87768      9.45905        -0.509342      1.486079      0.051107
B	      9.51624     11.90335      2.45510        -0.322606     -0.847385     -1.300434
B	      9.50149     14.17051      4.82261        -1.462721      0.503079     -1.654988
B	      0.07715      7.07553      7.06423        -2.268260      1.108314      1.113377
B	      2.29692      0.05985      2.34228         1.449568     -0.759217      0.673874
B	      2.35053      2.46835      4.75648         0.270766     -1.496245     -0.584537
B	      2.46887      4.74493      7.09180        -2.109248      0.398263     -0.106493
B	      2.45613      7.16729      9.49331        -0.942910     -0.542977     -0.475011
B	      4.82933      9.51947     14.26686        -1.458662     -0.250081     -1.340198
B	     14.15490     11.88381      7.17627         1.971685     -0.155201     -0.598033
B	      4.73017      4.68344      9.40674         0.560413      1.645323      2.174037
B	     14.25305     16.50373     11.85049        -0.494478      1.059403      0.211236
B	     16.54657     18.88865     16.58913         0.670300      2.845308     -0.588439
B	     16.50783     11.84819      9.44973         0.870399      0.846143      0.507381
B	     16.50924     14.22627     11.81685         1.946465     -0.998454      0.805558
B	     16.50773     16.63773     14.23067         1.318377     -0.719569      0.171079
B	      2.35208     11.77536      9.53961         1.330869      1.972495     -0.605465
B	     11.88238      4.71693     11.76425        -0.679125      2.152654      1.910639
B	      2.45067      7.09510      4.80094        -1.873998      0.789478     -0.499624
B	     11.87136      9.56775     16.54459         0.252202     -1.454192      0.633694
B	      4.72504     11.90480     11.77126         0.669146     -0.219004      1.419805
B	      4.71994      4.83928      4.75715         0.272623     -2.115044      0.149092
B	      4.65846      7.11628      7.06115         1.988091     -0.646301      2.678868
B	      4.82417      9.54442      9.48424        -1.166888     -0.201642      0.397001
B	      7.06860      2.45926      4.72916         2.222963     -1.561344      1.702497
B	      7.17532      4.71264      7.18788        -1.194911      1.544120     -0.324864
B	      7.10796      7.07474      9.39451         0.294661      0.918045      2.419334
B	      7.13529      9.51382     11.76374         0.321608     -1.533965      3.066620
B	      9.57509     11.81344     16.58943        -2.128129      1.236262      1.530543
B	      9.39735      4.72871      9.44208         1.702485      1.397057      0.255265
B	      9.53928      7.09321     11.93945        -1.639973      0.279561     -0.823376
B	      9.54645      9.56294     14.20822        -0.906039     -1.496769      0.564338
B	     14.22323     14.26269     18.87806        -0.212209      0.768683      2.219307
B	     14.22176      7.20947     11.88804         0.688052     -0.085820     -0.161509
B	     14.13797      9.46258     14.19504         2.270059      0.706860      0.884056
B	     14.14775     11.91455     16.58869         0.766444      0.087978     -0.014722
B	      7.13554     14.17033     11.93571        -1.009262      0.314964     -0.337796
B	      7.08289      7.10589      4.83749        -0.093916     -0.447555     -0.274061
B	      7.18907      9.42751      7.14642        -1.073088      1.549543      0.472203
B	      7.03253     11.88429      9.53664         0.099904     -0.101142     -0.353762
B	      9.40789      4.69975      4.78799         1.471997      1.212000     -0.401305
B	      9.47978      7.01795      7.13973         1.348823      1.859880     -0.216569
B	      9.44797      9.52645      9.40285        -0.007174     -0.290332      1.994219
B	      9.39168     11.82683     11.87003         1.022022      0.049561      0.986869
B	     11.85861      4.82137      7.05240         1.343726     -2.539568      2.100065
B	     11.94290      7.10118      9.53636        -1.879858      1.005286      0.869322
B	     11.81806      9.40037     11.89077         0.276434      2.299325     -0.267019
B	     11.95182     11.83228     14.20729        -3.202384      0.692274      1.253476
B	      7.21381     16.60236      9.47428        -2.260994      0.311849      0.171851
B	      7.19569      9.42849      2.38154        -2.372823      1.784407      0.543233
B	     16.51077     11.89436     14.25322         0.635415     -0.893418      0.598346
B	      7.19164     14.16548      7.11105        -1.677889      0.629673      0.957789
B	      9.53664     16.51431     11.85640        -0.868447      0.967477      0.339402
B	      9.51488      9.44922      4.83140        -1.863815     -0.798068     -1.750423
B	      9.57779     11.89459      7.10019        -1.225049     -0.730967      0.166062
B	      9.43725     14.24029      9.39945         1.011421     -1.724669      2.117577
B	     11.88976      7.07123      4.82720        -0.066808      0.054950     -0.993137
B	     11.90703      9.41916      7.05903        -0.245225      0.832520      0.766619
B	     11.88222     11.77151      9.44141        -1.598997      2.407739      1.935437
B	     11.84746     14.26605     11.76518        -0.070886     -0.521900      2.341484
B	     14.32698     16.60903     16.61888        -1.838434     -1.093528     -0.282095
B	     14.17664      9.57120      9.48649         1.052732     -0.857484     -0.067826
B	     14.15074     11.91916     11.86593         0.823266     -0.376034      0.755647
B	     14.31915     14.26944     14.24479        -1.868569     -0.987862      0.009841
As	      1.20252      1.14440      1.09626        -2.020159     -0.049794      1.777569
As	      1.21163      3.64560      3.51820         0.190565     -0.799522      1.162935
As	      1.09383      5.93870      5.89067         3.019125     -0.627410      0.080670
As	      1.15847      8.35537      8.22141         1.537518     -1.373475      0.654567
As	      3.59641      1.20941      3.46834        -1.005872      0.428927      1.567831
As	      3.56908      3.50788      6.01491        -0.555037      1.263412     -2.233691
As	      3.58355      5.83228      8.30038        -0.576777      2.795974     -0.010124
As	      3.58719      8.34196     10.75761         0.058535     -0.504730     -1.363138
As	      5.93378      1.28080      5.89810        -0.188209     -0.935084      1.480472
As	      5.87152      3.63733      8.28263         1.612302     -2.064414     -0.244719
As	      6.02774      5.94238     10.67616        -2.384768     -0.473063     -1.694116
As	      5.85197      8.23627     13.04582         1.145010      1.514305     -0.520004
As	      8.21092      1.14890      8.32591         0.940939      0.154377     -0.684899
As	      8.39149      3.59148     10.64922        -2.669689     -1.377941      0.873051
As	      8.25118      5.95903     12.96159        -0.110540     -0.978986      2.394559
As	      8.26587      8.39408     15.41066         0.803525     -2.207595     -0.697798
As	      3.57416      3.65513      1.19742         0.517796     -1.903022     -1.715818
As	      3.59830      6.01562      3.58505        -0.844185     -1.126259     -1.127508
As	      3.65275      8.28516      5.95432        -2.880154      1.223554     -0.692301
As	      3.52604     10.74818      8.24381         0.533273     -1.068275      1.227556
As	      5.93970      3.48486      3.62537        -1.985449      2.505089     -1.836523
As	      5.84509      5.92883      5.98352         1.776771     -0.161381     -0.042611
As	      5.99121      8.33009      8.37246        -1.466856     -0.321950     -1.484762
As	      5.96111     10.65157     10.76422        -1.009015      1.412252     -2.155797
As	      8.32239      3.63513      5.98747        -0.435114     -2.313223      0.186307
As	      8.31328      6.02769      8.30698        -0.271496     -2.781773     -0.113198
As	      8.28527      8.23578     10.74672         0.629294      0.777809     -2.185557
As	      8.32058     10.63327     13.13331        -1.617162      1.180460     -1.574404
As	     10.71886      3.54596      8.38777        -0.469999      0.245393     -1.562939
As	     10.62840      5.98844     10.73929         1.205773     -1.282276     -1.718590
As	     10.60006      8.33324     12.98189         1.842850     -0.712478      2.708298
As	     10.60454     10.62761     15.47419         2.404721      1.074492     -1.796585
As	      5.96097      5.97114      1.27041        -0.353231     -0.401598     -1.204592
As	      5.98902      8.30332      3.63701        -0.784544      0.512260     -0.882676
As	      5.91141     10.69360      6.02480        -0.384212     -0.965724     -1.011449
As	      5.83619     13.07973      8.31037         1.485855     -0.789653     -0.585057
As	      8.22163      5.89452      3.60867         1.508708      0.746166     -0.007502
As	      8.26694      8.24682      6.00643         1.611257     -0.072367     -0.885665
As	      8.26620     10.76576      8.30278         0.646272     -0.530536     -0.067855
As	      8.24823     12.99134     10.73956         0.497617      1.098245     -1.390617
As	     10.71206      5.85961      5.98873        -2.260672      1.608187     -1.799368
As	     10.70864      8.31912      8.39130        -0.036971     -0.518569     -1.739672
As	     10.61133     10.66759     10.75133         0.726701     -0.229776     -1.562369
As	     10.61666     13.00586     13.11786         0.638759      0.282921     -1.629176
As	     12.97659      5.94100      8.37377         1.644861      0.319880     -2.210976
As	     13.03279      8.39959     10.66672         0.614553     -1.237327      0.351586
As	     13.03600     10.72647     13.12669         0.109833     -2.027409     -2.712277
As	     13.03820     13.03590     15.31519         0.362673      1.302665      1.519499
As	      8.21751      8.35427      1.17045         2.931530     -2.020683      0.128235
As	      8.20627     10.69888      3.57795         1.805269     -0.240846      0.327592
As	      8.25966     12.97668      5.99133         1.446248      0.067728     -1.397901
As	      8.28155     15.34397      8.36834         0.128512      1.803467     -2.396229
As	     10.76250      8.30632      3.59890        -1.525736     -0.720289     -0.307597
As	     10.60171     10.61731      5.88268         2.477880      1.456970      1.326818
As	     10.68520     13.12629      8.24615         0.660413     -1.395695      0.639454
As	     10.67099     15.34601     10.59919        -0.148692      1.776960      0.026829
As	     13.10263      8.23636      5.87985         0.419586      1.111172      1.281775
As	     13.08402     10.74316      8.35724        -1.179436     -1.942295     -1.964769
As	     13.07548     13.13391     10.69918        -1.007856     -1.673524     -1.145817
As	     13.09759     15.40052     13.12603        -1.143375     -0.177167     -1.650950
As	     15.39423      8.35473      8.21896        -0.077764     -1.155412      2.632533
As	     15.33742     10.73473     10.66468         0.978609     -0.700409      1.046900
As	     15.36760     13.05301     13.13091         0.560635      0.054953     -2.187673
As	     15.41153     15.31808     15.44003         1.589400      1.873492      0.903769
128
Config_type=OUTCAR Weight=1.0 Lattice="0.000000000 9.486025501 9.486025501 9.486025501 0.000000000 9.486025501 9.486025501 9.486025501 0.000000000" Energy=-715.571026 Virial="93.00123 -7.74824 1.12656 -7.74824 91.22841 -5.07077 1.12656 -5.07077 93.97784" Properties=species:S:1:pos:R:3:force:R:3
B	     18.89199      9.46869      9.42866         0.340422      0.737827      1.028807
B	     18.92057     11.93681     11.89015         1.434813     -1.823464     -0.694051
B	      9.52375      4.79458     14.15211         0.851204     -0.865039      1.154505
B	      9.46418     16.50327      7.12228        -0.082316      0.727369     -0.508575
B	      2.32497      0.08845      2.36815         1.366928     -2.228044      2.122041
B	      2.34717      2.44588      4.68075         0.281664     -2.358821      0.980575
B	      2.36413      4.80235      7.03437         0.695548     -1.675149      1.735863
B	     11.84366     16.59994      9.58506        -1.131249      0.081650     -0.716404
B	     14.19208      9.40666      4.79134         2.125127      1.783361     -1.860120
B	      4.68225      2.44874      7.09603         1.109976     -1.922293     -0.001734
B	     14.21835     14.16112      9.41341        -0.782112      1.903371      1.827201
B	      4.83762      7.13758     11.88027        -2.726922     -0.597190     -1.535477
B	     16.61758     18.88951     16.65437        -0.311174      0.855615     -1.408032
B	     16.50845     11.89195      9.46774         1.889869      1.149149     -0.716228
B	      7.11154      4.84009     11.88134        -0.018684     -2.162754     -0.475759
B	      7.12554      7.06078     14.14543        -1.606403      0.889681      1.607153
B	     11.76258      2.36890      9.51729         2.103917      0.225962     -0.617759
B	      2.43791      4.70436      2.43551        -0.188392      0.607214     -1.422344
B	     11.77534      7.16851     14.21090         2.489212     -1.020765      1.712280
B	      2.36969      9.39312      7.15147        -0.288193      1.306579      0.271229
B	      4.79232     11.77900     11.82010        -1.306974      1.362442      2.375001
B	      4.71846      4.83941      4.75325         1.374214     -2.374725      0.995088
B	      4.83036      7.07562      7.08524        -1.047432      0.551144      1.799157
B	      4.65977      9.51312      9.53437         1.926092     -1.066694      0.374548
B	      7.14865     11.76509     14.24605        -0.066274      2.637348      0.426979
B	      7.16487      4.67923      7.05624        -0.325606      0.986847      1.632989
B	      7.16747      7.02974      9.48895         0.856185      1.331910     -0.244920
B	      7.07051      9.45746     11.77240         0.000012      0.075030      1.805045
B	      9.51804      2.32666      7.19797        -0.467923      1.238687     -0.825142
B	      9.52410      4.82002      9.53721        -0.096549     -1.265072     -0.458401
B	      9.39884      7.15080     11.82462         2.485282     -1.844059      2.318179
B	      9.56038      9.53208     14.18056        -0.889298     -0.453585      0.966629
B	      4.75649      4.81214      0.07099        -1.329049     -1.928357     -1.940684
B	     14.20552      7.18083     11.92859         1.128379     -1.676362      0.406171
B	      4.75884      9.41815      4.81472        -0.375775      1.751314     -0.435073
B	      4.76474     11.78514      7.18000         0.418777      0.379253     -1.951877
B	      7.14037      4.83546      2.39954         0.282534     -2.120608     -0.088983
B	      7.06453      7.19589      4.71336         1.346352     -1.795878      0.662406
B	      7.12952      9.52545      7.02385         0.109591     -0.446127      2.478398
B	      7.20927     11.84005      9.45926        -2.223118      1.717014      0.975383
B	      9.45002      4.70804      4.82950         1.402022      0.845118     -1.138277
B	      9.53279      7.03344      7.07932        -0.577958      1.110994      0.004001
B	      9.43838      9.57306      9.49849         0.610394     -0.776096     -0.806205
B	      9.39674     11.82578     11.82560         1.774152      0.682887      0.796607
B	     11.87029      4.73233      7.21313        -0.251976     -0.983074     -1.158143
B	     11.84747      7.08166      9.57994         1.034548      2.377073     -2.232440
B	     11.81454      9.41089     11.80747         1.002797      1.957421      0.298797
B	     11.94325     11.80684     14.21990        -1.408357      1.985533      1.824533
B	     16.58124     16.64945     18.88699         0.294734     -2.260251      1.461966
B	     16.53864      9.50421     11.93393         0.668078      0.476976     -2.034189
B	      7.18054     11.78251      4.74676        -0.234465      1.484066      0.253997
B	     16.60731     14.32407     16.63094        -0.973979     -3.281330     -1.864171
B	      9.54840     16.52350     11.84439        -1.216510      2.552716      0.423390
B	      9.40084      9.47104      4.69282         0.477101      0.100457      1.116735
B	      9.47485     11.80265      7.03167        -0.311827      1.397585      2.134874
B	      9.50700     14.27850      9.40168        -0.146925     -0.576276      1.685835
B	     11.88382     16.50751     14.20347         0.796780      1.355697      0.388659
B	     11.92589      9.47794      7.04198        -0.787766      0.284932      1.115536
B	     11.89805     11.81338      9.40597        -0.587602      0.453110      0.243212
B	     11.81529     14.28170     11.93131         1.289367     -0.569531     -0.948172
B	     14.32078     16.60787     16.56143        -2.238648     -0.696762     -0.524404
B	     14.30245      9.54417      9.45094        -0.028217     -1.770511      1.038815
B	     14.21296     11.90558     11.94374         0.156442     -0.133106     -1.944167
B	     14.17564     14.30872     14.20076         1.827397     -2.704155      0.920632
As	      1.27691      1.15079      1.20737        -3.729536      0.912022     -0.920646
As	      1.23967      3.51811      3.48270        -1.350273      1.517756      0.795607
As	      1.26075      5.98207      5.96794        -1.940865     -0.398788     -1.599966
As	      1.09115      8.27661      8.27811         0.665784     -0.555429      0.924043
As	      3.61878      1.12803      3.61096        -1.287274      0.965442     -0.925788
As	      3.54398      3.47113      5.87971        -0.407866      2.940822      0.208591
As	      3.51046      5.97853      8.37330         0.891754     -0.857403     -1.326558
As	      3.46516      8.32878     10.69833         1.324461     -0.073685      0.595677
As	      5.96646      1.21108      5.83967        -1.287536     -1.710248      2.694693
As	      5.87154      3.61783      8.24498         0.967000     -0.877918     -0.130308
As	      5.96970      6.01819     10.68987        -0.826157     -2.237905     -0.783583
As	      5.85133      8.25223     13.00211         2.428238      1.643559      1.491999