1468

    1
  0.0000000000   0.0000000000   0.0000000000 
  0.0000000000   0.0000000000   0.0000000000 
    1    1    1
 1 1 1     -0.0000000000
 1 1 2    -128.7497489155
 1 1 3      0.0000000000
 1 2 1    -128.7497489155
 1 2 2      0.0000000000
 1 2 3      0.0000000000
 1 3 1      0.0000000000
 1 3 2      0.0000000000
 1 3 3      0.0000000000
 2 1 1    -128.7497489155
 2 1 2      0.0000000000
 2 1 3      0.0000000000
 2 2 1      0.0000000000
 2 2 2    128.7497489155
 2 2 3      0.0000000000
 2 3 1      0.0000000000
 2 3 2      0.0000000000
 2 3 3      0.0000000000
 3 1 1      0.0000000000
 3 1 2      0.0000000000
 3 1 3      0.0000000000
 3 2 1      0.0000000000
 3 2 2      0.0000000000
 3 2 3      0.0000000000
 3 3 1      0.0000000000
 3 3 2      0.0000000000
 3 3 3      0.0000000000

    2
  0.0000000000   0.0000000000   0.0000000000 
  2.4662968976   0.0000000000   0.0000000000 
    1    1    1
 1 1 1    -11.3982960714
 1 1 2     -1.5034227692
 1 1 3      0.0000000000
 1 2 1      1.8929394484
 1 2 2      1.6962627726
 1 2 3      0.0000000000
 1 3 1      0.0000000000
 1 3 2      0.0000000000
 1 3 3      2.5247027162
 2 1 1      1.8929394484
 2 1 2      1.6962627726
 2 1 3      0.0000000000
 2 2 1      1.4304032785
 2 2 2      0.3906044811
 2 2 3      0.0000000000
 2 3 1      0.0000000000
 2 3 2      0.0000000000
 2 3 3      0.9322120955
 3 1 1      0.0000000000
 3 1 2      0.0000000000
 3 1 3      2.5247027162
 3 2 1      0.0000000000
 3 2 2      0.0000000000
 3 2 3      0.9322120955
 3 3 1     -0.2285782320
 3 3 2      0.6037403258
 3 3 3      0.0000000000

    3
  0.0000000000   0.0000000000   0.0000000000 
 -1.2331484488   2.1358757666   0.0000000000 
    1    1    1
 1 1 1     -1.1316825999
 1 1 2     -0.8120768810
 1 1 3      0.0000000000
 1 2 1     -2.2800169141
 1 2 2      4.0050921957
 1 2 3      0.0000000000
 1 3 1      0.0000000000
 1 3 2      0.0000000000
 1 3 3     -2.0696707145
 2 1 1     -2.2800169141
 2 1 2      4.0050921957
 2 1 3      0.0000000000
 2 2 1      7.0793579037
 2 2 2     -7.2639623558
 2 2 3      0.0000000000
 2 3 1      0.0000000000
 2 3 2      0.0000000000
 2 3 3      1.7203506415
 3 1 1      0.0000000000
 3 1 2      0.0000000000
 3 1 3     -2.0696707145
 3 2 1      0.0000000000
 3 2 2      0.0000000000
 3 2 3      1.7203506415
 3 3 1     -0.4085653435
 3 3 2     -0.4998247186
 3 3 3      0.0000000000

    4
  0.0000000000   0.0000000000   0.0000000000 
  1.2331484488   2.1358757666   0.0000000000 
    1    1    1
 1 1 1      1.1316825999
 1 1 2     -0.8120768810
 1 1 3      0.0000000000
 1 2 1     -2.2800169141
 1 2 2     -4.0050921957
 1 2 3      0.0000000000
 1 3 1      0.0000000000
 1 3 2      0.0000000000
 1 3 3      2.0696707145
 2 1 1     -2.2800169141
 2 1 2     -4.0050921957
 2 1 3      0.0000000000
 2 2 1     -7.0793579037
 2 2 2     -7.2639623558
 2 2 3      0.0000000000
 2 3 1      0.0000000000
 2 3 2      0.0000000000
 2 3 3      1.7203506415
 3 1 1      0.0000000000
 3 1 2      0.0000000000
 3 1 3      2.0696707145
 3 2 1      0.0000000000
 3 2 2      0.0000000000
 3 2 3      1.7203506415
 3 3 1      0.4085653435
 3 3 2     -0.4998247186
 3 3 3      0.0000000000

    5
  0.0000000000   0.0000000000   0.0000000000 
  0.0000000000   0.0000000000   0.0000000000 
    1    1    2
 1 1 1      0.0000000000
 1 1 2     10.0508306359
 1 1 3      0.0000000000
 1 2 1     12.3488325185
 1 2 2     -0.0000000000
 1 2 3      0.0000000000
 1 3 1      0.0000000000
 1 3 2      0.0000000000
 1 3 3      0.0000000000
 2 1 1     12.3488325185
 2 1 2     -0.0000000000
 2 1 3      0.0000000000
 2 2 1     -0.0000000000
 2 2 2    -139.6655536992
 2 2 3      0.0000000000
 2 3 1      0.0000000000
 2 3 2      0.0000000000
 2 3 3     12.9388581306
 3 1 1      0.0000000000
 3 1 2      0.0000000000
 3 1 3      0.0000000000
 3 2 1      0.0000000000
 3 2 2      0.0000000000
 3 2 3     12.9388581306
 3 3 1      0.0000000000
 3 3 2     11.1278886895
 3 3 3      0.0000000000

    6
  0.0000000000   0.0000000000   0.0000000000 
  2.4662968976   0.0000000000   0.0000000000 
    1    1    2
 1 1 1     -2.5423815644
 1 1 2     -0.0682145541
 1 1 3      0.0000000000
 1 2 1     -0.5862771242
 1 2 2     -1.1465640858
 1 2 3      0.0000000000
 1 3 1      0.0000000000
 1 3 2      0.0000000000
 1 3 3      0.0408827479
 2 1 1     -0.5862771242
 2 1 2     -1.1465640858
 2 1 3      0.0000000000
 2 2 1     -0.2492533929
 2 2 2     -1.5435366399
 2 2 3      0.0000000000
 2 3 1      0.0000000000
 2 3 2      0.0000000000
 2 3 3      0.0236036655
 3 1 1      0.0000000000
 3 1 2      0.0000000000
 3 1 3      0.0408827479
 3 2 1      0.0000000000
 3 2 2      0.0000000000
 3 2 3      0.0236036655
 3 3 1     -0.4568232434
 3 3 2     -0.2637470226
 3 3 3      0.0000000000

    7
  0.0000000000   0.0000000000   0.0000000000 
 -1.2331484488   2.1358757666   0.0000000000 
    1    1    2
 1 1 1     -0.1593890783
 1 1 2     -0.6525708778
 1 1 3      0.0000000000
 1 2 1     -0.3490434712
 1 2 2      0.1832292974
 1 2 3      0.0000000000
 1 3 1      0.0000000000
 1 3 2      0.0000000000
 1 3 3     -0.1787421906
 2 1 1     -0.3490434712
 2 1 2      0.1832292974
 2 1 3      0.0000000000
 2 2 1      0.4092340176
 2 2 2      1.3634549283
 2 2 3      0.0000000000
 2 3 1      0.0000000000
 2 3 2      0.0000000000
 2 3 3     -0.1654013074
 3 1 1      0.0000000000
 3 1 2      0.0000000000
 3 1 3     -0.1787421906
 3 2 1      0.0000000000
 3 2 2      0.0000000000
 3 2 3     -0.1654013074
 3 3 1      0.0080740426
 3 3 2     -0.1269121875
 3 3 3      0.0000000000

    8
  0.0000000000   0.0000000000   0.0000000000 
  1.2331484488   2.1358757666   0.0000000000 
    1    1    2
 1 1 1      0.1593890783
 1 1 2     -0.6525708778
 1 1 3      0.0000000000
 1 2 1     -0.3490434712
 1 2 2     -0.1832292974
 1 2 3      0.0000000000
 1 3 1      0.0000000000
 1 3 2      0.0000000000
 1 3 3      0.1787421906
 2 1 1     -0.3490434712
 2 1 2     -0.1832292974
 2 1 3      0.0000000000
 2 2 1     -0.4092340176
 2 2 2      1.3634549283
 2 2 3      0.0000000000
 2 3 1      0.0000000000
 2 3 2      0.0000000000
 2 3 3     -0.1654013074
 3 1 1      0.0000000000
 3 1 2      0.0000000000
 3 1 3      0.1787421906
 3 2 1      0.0000000000
 3 2 2      0.0000000000
 3 2 3     -0.1654013074
 3 3 1     -0.0080740426
 3 3 2     -0.1269121875
 3 3 3      0.0000000000

    9
  0.0000000000   0.0000000000   0.0000000000 
  0.0000000000   0.0000000000   0.0000000000 
    1    1    3
 1 1 1     -0.0000000000
 1 1 2     -0.0995198122
 1 1 3      0.5504062717
 1 2 1     -0.0995198122
 1 2 2      0.0000000000
 1 2 3      0.0000000000
 1 3 1      0.1719877672
 1 3 2      0.0000000000
 1 3 3      0.0000000000
 2 1 1     -0.0995198122
 2 1 2      0.0000000000
 2 1 3      0.0000000000
 2 2 1      0.0000000000
 2 2 2      0.0995198122
 2 2 3      0.5504062717
 2 3 1      0.0000000000
 2 3 2      0.1719877672
 2 3 3      0.0000000000
 3 1 1      0.1719877672
 3 1 2      0.0000000000
 3 1 3      0.0000000000
 3 2 1      0.0000000000
 3 2 2      0.1719877672
 3 2 3      0.0000000000
 3 3 1      0.0000000000
 3 3 2      0.0000000000
 3 3 3      0.4019804373

   10
  0.0000000000   0.0000000000   0.0000000000 
  0.0000000000   0.0000000000   0.0000000000 
    1    1    4
 1 1 1      0.1306407018
 1 1 2     -0.0465450520
 1 1 3     -0.1935684877
 1 2 1     -0.1528729305
 1 2 2     -0.0178415287
 1 2 3      0.0926293961
 1 3 1     -0.0348870162
 1 3 2     -0.1405681124
 1 3 3     -0.0806573870
 2 1 1     -0.1528729305
 2 1 2     -0.0178415287
 2 1 3      0.0926293961
 2 2 1      0.1663237591
 2 2 2      0.2179975635
 2 2 3     -0.3005277012
 2 3 1     -0.1405681124
 2 3 2      0.1274270588
 2 3 3     -0.0465675641
 3 1 1     -0.0348870162
 3 1 2     -0.1405681124
 3 1 3     -0.0806573870
 3 2 1     -0.1405681124
 3 2 2      0.1274270588
 3 2 3     -0.0465675641
 3 3 1     -0.2384348497
 3 3 2     -0.1376604246
 3 3 3     -0.1262468238

   11
  2.4662968976   0.0000000000   0.0000000000 
  0.0000000000   0.0000000000   0.0000000000 
    1    1    1
 1 1 1    -11.3982960714
 1 1 2      1.8929394484
 1 1 3      0.0000000000
 1 2 1     -1.5034227692
 1 2 2      1.6962627726
 1 2 3      0.0000000000
 1 3 1      0.0000000000
 1 3 2      0.0000000000
 1 3 3      2.5247027162
 2 1 1      1.8929394484
 2 1 2      1.4304032785
 2 1 3      0.0000000000
 2 2 1      1.6962627726
 2 2 2      0.3906044811
 2 2 3      0.0000000000
 2 3 1      0.0000000000
 2 3 2      0.0000000000
 2 3 3      0.9322120955
 3 1 1      0.0000000000
 3 1 2      0.0000000000
 3 1 3     -0.2285782320
 3 2 1      0.0000000000
 3 2 2      0.0000000000
 3 2 3      0.6037403258
 3 3 1      2.5247027162
 3 3 2      0.9322120955
 3 3 3      0.0000000000

   12
  2.4662968976   0.0000000000   0.0000000000 
  2.4662968976   0.0000000000   0.0000000000 
    1    1    1
 1 1 1     11.3982960714
 1 1 2      1.8929394484
 1 1 3      0.0000000000
 1 2 1      1.8929394484
 1 2 2     -1.4304032785
 1 2 3      0.0000000000
 1 3 1      0.0000000000
 1 3 2      0.0000000000
 1 3 3      0.2285782320
 2 1 1     -1.5034227692
 2 1 2     -1.6962627726
 2 1 3      0.0000000000
 2 2 1     -1.6962627726
 2 2 2      0.3906044811
 2 2 3      0.0000000000
 2 3 1      0.0000000000
 2 3 2      0.0000000000
 2 3 3      0.6037403258
 3 1 1      0.0000000000
 3 1 2      0.0000000000
 3 1 3     -2.5247027162
 3 2 1      0.0000000000
 3 2 2      0.0000000000
 3 2 3      0.9322120955
 3 3 1     -2.5247027162
 3 3 2      0.9322120955
 3 3 3      0.0000000000

   13
  2.4662968976   0.0000000000   0.0000000000 
  1.2331484488   2.1358757666   0.0000000000 
    1    1    1
 1 1 1      0.0000000000
 1 1 2     -0.0096991659
 1 1 3      0.0000000000
 1 2 1      0.1660797009
 1 2 2      0.1014859760
 1 2 3      0.0000000000
 1 3 1      0.0000000000
 1 3 2      0.0000000000
 1 3 3      0.0270690556
 2 1 1      0.1660797009
 2 1 2     -0.1014859760
 2 1 3      0.0000000000
 2 2 1     -0.0000000000
 2 2 2     -0.1074867453
 2 2 3      0.0000000000
 2 3 1      0.0000000000
 2 3 2      0.0000000000
 2 3 3      0.0156283265
 3 1 1      0.0000000000
 3 1 2      0.0000000000
 3 1 3     -0.0270690556
 3 2 1      0.0000000000
 3 2 2      0.0000000000
 3 2 3      0.0156283265
 3 3 1     -0.0000000000
 3 3 2     -0.0312566530
 3 3 3      0.0000000000

   14
  2.4662968976   0.0000000000   0.0000000000 
  0.0000000000   0.0000000000   0.0000000000 
    1    1    2
 1 1 1      0.8517830610
 1 1 2     -0.7990117950
 1 1 3      0.0000000000
 1 2 1      0.0577314797
 1 2 2     -0.5442531741
 1 2 3      0.0000000000
 1 3 1      0.0000000000
 1 3 2      0.0000000000
 1 3 3     -0.7638733031
 2 1 1      0.3185196061
 2 1 2     -0.3394786300
 2 1 3      0.0000000000
 2 2 1     -0.0610978685
 2 2 2     -1.0860937339
 2 2 3      0.0000000000
 2 3 1      0.0000000000
 2 3 2      0.0000000000
 2 3 3      0.1975316875
 3 1 1      0.0000000000
 3 1 2      0.0000000000
 3 1 3      0.7665182518
 3 2 1      0.0000000000
 3 2 2      0.0000000000
 3 2 3      0.3371504005
 3 3 1      0.1434151279
 3 3 2     -0.4162985244
 3 3 3      0.0000000000

   15
  2.4662968976   0.0000000000   0.0000000000 
  2.4662968976   0.0000000000   0.0000000000 
    1    1    2
 1 1 1     -0.8517830610
 1 1 2     -0.7990117950
 1 1 3      0.0000000000
 1 2 1      0.3185196061
 1 2 2      0.3394786300
 1 2 3      0.0000000000
 1 3 1      0.0000000000
 1 3 2      0.0000000000
 1 3 3     -0.7665182518
 2 1 1      0.0577314797
 2 1 2      0.5442531741
 2 1 3      0.0000000000
 2 2 1      0.0610978685
 2 2 2     -1.0860937339
 2 2 3      0.0000000000
 2 3 1      0.0000000000
 2 3 2      0.0000000000
 2 3 3      0.3371504005
 3 1 1      0.0000000000
 3 1 2      0.0000000000
 3 1 3      0.7638733031
 3 2 1      0.0000000000
 3 2 2      0.0000000000
 3 2 3      0.1975316875
 3 3 1     -0.1434151279
 3 3 2     -0.4162985244
 3 3 3      0.0000000000

   16
  2.4662968976   0.0000000000   0.0000000000 
  1.2331484488   2.1358757666   0.0000000000 
    1    1    2
 1 1 1     -0.0000000000
 1 1 2     -0.1689852459
 1 1 3      0.0000000000
 1 2 1     -0.1798894298
 1 2 2     -0.4346328953
 1 2 3      0.0000000000
 1 3 1      0.0000000000
 1 3 2      0.0000000000
 1 3 3      0.0901475466
 2 1 1     -0.1798894298
 2 1 2      0.4346328953
 2 1 3      0.0000000000
 2 2 1     -0.0000000000
 2 2 2     -0.0468363729
 2 2 3      0.0000000000
 2 3 1      0.0000000000
 2 3 2      0.0000000000
 2 3 3      0.1041288504
 3 1 1      0.0000000000
 3 1 2      0.0000000000
 3 1 3     -0.0901475466
 3 2 1      0.0000000000
 3 2 2      0.0000000000
 3 2 3      0.1041288504
 3 3 1      0.0000000000
 3 3 2      0.0123677329
 3 3 3      0.0000000000

   17
  2.4662968976   0.0000000000   0.0000000000 
  0.0000000000   0.0000000000   0.0000000000 
    1    1    4
 1 1 1     -0.0000000000
 1 1 2     -0.0933058765
 1 1 3     -0.0237153639
 1 2 1      0.0267625939
 1 2 2     -0.1664973076
 1 2 3     -0.1776230208
 1 3 1      0.0827499069
 1 3 2     -0.0432651997
 1 3 3      0.0480273970
 2 1 1      0.0267625939
 2 1 2      0.1664973076
 2 1 3      0.1776230208
 2 2 1      0.0000000000
 2 2 2      0.2358501661
 2 2 3      0.2695815913
 2 3 1     -0.1190474560
 2 3 2     -0.1423601329
 2 3 3     -0.1001729667
 3 1 1      0.0827499069
 3 1 2      0.0432651997
 3 1 3     -0.0480273970
 3 2 1      0.1190474560
 3 2 2     -0.1423601329
 3 2 3     -0.1001729667
 3 3 1      0.0000000000
 3 3 2      0.0993381733
 3 3 3     -0.0054587691

   18
 -1.2331484488   2.1358757666   0.0000000000 
  0.0000000000   0.0000000000   0.0000000000 
    1    1    1
 1 1 1     -1.1316825999
 1 1 2     -2.2800169141
 1 1 3      0.0000000000
 1 2 1     -0.8120768810
 1 2 2      4.0050921957
 1 2 3      0.0000000000
 1 3 1      0.0000000000
 1 3 2      0.0000000000
 1 3 3     -2.0696707145
 2 1 1     -2.2800169141
 2 1 2      7.0793579037
 2 1 3      0.0000000000
 2 2 1      4.0050921957
 2 2 2     -7.2639623558
 2 2 3      0.0000000000
 2 3 1      0.0000000000
 2 3 2      0.0000000000
 2 3 3      1.7203506415
 3 1 1      0.0000000000
 3 1 2      0.0000000000
 3 1 3     -0.4085653435
 3 2 1      0.0000000000
 3 2 2      0.0000000000
 3 2 3     -0.4998247186
 3 3 1     -2.0696707145
 3 3 2      1.7203506415
 3 3 3      0.0000000000

   19
 -1.2331484488   2.1358757666   0.0000000000 
 -1.2331484488   2.1358757666   0.0000000000 
    1    1    1
 1 1 1     -0.3640600001
 1 1 2      1.8059662006
 1 1 3      0.0000000000
 1 2 1      1.8059662006
 1 2 2     -3.6561574891
 1 2 3      0.0000000000
 1 3 1      0.0000000000
 1 3 2      0.0000000000
 1 3 3     -0.6371435755
 2 1 1      3.7343883852
 2 1 2     -6.4645637030
 2 1 3      0.0000000000
 2 2 1     -6.4645637030
 2 2 2      5.4544691398
 2 2 3      0.0000000000
 2 3 1      0.0000000000
 2 3 2      0.0000000000
 2 3 3     -0.1039156073
 3 1 1      0.0000000000
 3 1 2      0.0000000000
 3 1 3      0.4550320017
 3 2 1      0.0000000000
 3 2 2      0.0000000000
 3 2 3     -2.6525627369
 3 3 1      0.4550320017
 3 3 2     -2.6525627369
 3 3 3      0.0000000000

   20
 -1.2331484488   2.1358757666   0.0000000000 
  1.2331484488   2.1358757666   0.0000000000 
    1    1    1
 1 1 1      0.0000000000
 1 1 2     -0.3770782446
 1 1 3      0.0000000000
 1 2 1     -0.3770782446
 1 2 2     -0.0000000000
 1 2 3      0.0000000000
 1 3 1      0.0000000000
 1 3 2      0.0000000000
 1 3 3     -0.0000000000
 2 1 1      1.9888224571
 2 1 2      1.3659534070
 2 1 3      0.0000000000
 2 2 1     -1.3659534070
 2 2 2     -0.4115553226
 2 2 3      0.0000000000
 2 3 1      0.0000000000
 2 3 2      0.0000000000
 2 3 3     -0.0874733202
 3 1 1      0.0000000000
 3 1 2      0.0000000000
 3 1 3     -0.0757541174
 3 2 1      0.0000000000
 3 2 2      0.0000000000
 3 2 3      0.0437366601
 3 3 1      0.0757541174
 3 3 2      0.0437366601
 3 3 3      0.0000000000

   21
 -1.2331484488   2.1358757666   0.0000000000 
  0.0000000000   0.0000000000   0.0000000000 
    1    1    2
 1 1 1     -0.5064778840
 1 1 2      0.2687951359
 1 1 3      0.0000000000
 1 2 1      0.1653437933
 1 2 2     -0.2285536218
 1 2 3      0.0000000000
 1 3 1      0.0000000000
 1 3 2      0.0000000000
 1 3 3      1.6348865934
 2 1 1     -3.8603031175
 2 1 2     -2.5527619494
 2 1 3      0.0000000000
 2 2 1      2.2748376873
 2 2 2      0.7521678726
 2 2 3      0.0000000000
 2 3 1      0.0000000000
 2 3 2      0.0000000000
 2 3 3     -0.9604071810
 3 1 1      0.0000000000
 3 1 2      0.0000000000
 3 1 3     -0.0142937201
 3 2 1      0.0000000000
 3 2 2      0.0000000000
 3 2 3      1.8960569127
 3 3 1     -0.0708599699
 3 3 2     -0.0409110227
 3 3 3      0.0000000000

   22
 -1.2331484488   2.1358757666   0.0000000000 
  2.4662968976   0.0000000000   0.0000000000 
    1    1    2
 1 1 1     -0.1557023166
 1 1 2      0.1283806263
 1 1 3      0.0000000000
 1 2 1     -0.0715782482
 1 2 2     -0.0920928285
 1 2 3      0.0000000000
 1 3 1      0.0000000000
 1 3 2      0.0000000000
 1 3 3     -0.0787568250
 2 1 1     -0.2842063271
 2 1 2      0.6439842494
 2 1 3      0.0000000000
 2 2 1      0.3543542368
 2 2 2     -0.2694402008
 2 2 3      0.0000000000
 2 3 1      0.0000000000
 2 3 2      0.0000000000
 2 3 3     -0.3308121199
 3 1 1      0.0000000000
 3 1 2      0.0000000000
 3 1 3      0.2825351000
 3 2 1      0.0000000000
 3 2 2      0.0000000000
 3 2 3      0.0175168746
 3 3 1     -0.0466233433
 3 3 2      0.2289877838
 3 3 3      0.0000000000

   23
 -1.2331484488   2.1358757666   0.0000000000 
 -1.2331484488   2.1358757666   0.0000000000 
    1    1    2
 1 1 1      0.3549901737
 1 1 2     -0.2472826636
 1 1 3      0.0000000000
 1 2 1     -0.1703877417
 1 2 2     -1.0982577918
 1 2 3      0.0000000000
 1 3 1      0.0000000000
 1 3 2      0.0000000000
 1 3 3      0.7646933072
 2 1 1     -0.4349300163
 2 1 2      2.1187714367
 2 1 3      0.0000000000
 2 2 1     -0.2674511126
 2 2 2      0.1769438857
 2 2 3      0.0000000000
 2 3 1      0.0000000000
 2 3 2      0.0000000000
 2 3 3     -0.1177624791
 3 1 1      0.0000000000
 3 1 2      0.0000000000
 3 1 3      0.8583712764
 3 2 1      0.0000000000
 3 2 2      0.0000000000
 3 2 3     -0.5368615618
 3 3 1      0.4750459098
 3 3 2      0.2349258579
 3 3 3      0.0000000000

   24
 -1.2331484488   2.1358757666   0.0000000000 
  1.2331484488   2.1358757666   0.0000000000 
    1    1    2
 1 1 1      0.0961383889
 1 1 2      0.0285345714
 1 1 3      0.0000000000
 1 2 1     -0.1518064518
 1 2 2     -0.1473280625
 1 2 3      0.0000000000
 1 3 1      0.0000000000
 1 3 2      0.0000000000
 1 3 3      0.1564376084
 2 1 1      0.3793409573
 2 1 2     -0.6995079193
 2 1 3      0.0000000000
 2 2 1     -0.1189736037
 2 2 2      0.2140328252
 2 2 3      0.0000000000
 2 3 1      0.0000000000
 2 3 2      0.0000000000
 2 3 3      0.2359241368
 3 1 1      0.0000000000
 3 1 2      0.0000000000
 3 1 3     -0.3258701122
 3 2 1      0.0000000000
 3 2 2      0.0000000000
 3 2 3      0.0972006487
 3 3 1      0.1749975662
 3 3 2     -0.1548708916
 3 3 3      0.0000000000

   25
  1.2331484488   2.1358757666   0.0000000000 
  0.0000000000   0.0000000000   0.0000000000 
    1    1    1
 1 1 1      1.1316825999
 1 1 2     -2.2800169141
 1 1 3      0.0000000000
 1 2 1     -0.8120768810
 1 2 2     -4.0050921957
 1 2 3      0.0000000000
 1 3 1      0.0000000000
 1 3 2      0.0000000000
 1 3 3      2.0696707145
 2 1 1     -2.2800169141
 2 1 2     -7.0793579037
 2 1 3      0.0000000000
 2 2 1     -4.0050921957
 2 2 2     -7.2639623558
 2 2 3      0.0000000000
 2 3 1      0.0000000000
 2 3 2      0.0000000000
 2 3 3      1.7203506415
 3 1 1      0.0000000000
 3 1 2      0.0000000000
 3 1 3      0.4085653435
 3 2 1      0.0000000000
 3 2 2      0.0000000000
 3 2 3     -0.4998247186
 3 3 1      2.0696707145
 3 3 2      1.7203506415
 3 3 3      0.0000000000

   26
  1.2331484488   2.1358757666   0.0000000000 
  2.4662968976   0.0000000000   0.0000000000 
    1    1    1
 1 1 1      0.0000000000
 1 1 2      0.1660797009
 1 1 3      0.0000000000
 1 2 1     -0.0096991659
 1 2 2      0.1014859760
 1 2 3      0.0000000000
 1 3 1      0.0000000000
 1 3 2      0.0000000000
 1 3 3      0.0270690556
 2 1 1      0.1660797009
 2 1 2     -0.0000000000
 2 1 3      0.0000000000
 2 2 1     -0.1014859760
 2 2 2     -0.1074867453
 2 2 3      0.0000000000
 2 3 1      0.0000000000
 2 3 2      0.0000000000
 2 3 3      0.0156283265
 3 1 1      0.0000000000
 3 1 2      0.0000000000
 3 1 3     -0.0000000000
 3 2 1      0.0000000000
 3 2 2      0.0000000000
 3 2 3     -0.0312566530
 3 3 1     -0.0270690556
 3 3 2      0.0156283265
 3 3 3      0.0000000000

   27
  1.2331484488   2.1358757666   0.0000000000 
 -1.2331484488   2.1358757666   0.0000000000 
    1    1    1
 1 1 1      0.0000000000
 1 1 2     -0.3770782446
 1 1 3      0.0000000000
 1 2 1     -0.3770782446
 1 2 2     -0.0000000000
 1 2 3      0.0000000000
 1 3 1      0.0000000000
 1 3 2      0.0000000000
 1 3 3     -0.0000000000
 2 1 1      1.9888224571
 2 1 2     -1.3659534070
 2 1 3      0.0000000000
 2 2 1      1.3659534070
 2 2 2     -0.4115553226
 2 2 3      0.0000000000
 2 3 1      0.0000000000
 2 3 2      0.0000000000
 2 3 3     -0.0874733202
 3 1 1      0.0000000000
 3 1 2      0.0000000000
 3 1 3      0.0757541174
 3 2 1      0.0000000000
 3 2 2      0.0000000000
 3 2 3      0.0437366601
 3 3 1     -0.0757541174
 3 3 2      0.0437366601
 3 3 3      0.0000000000

   28
  1.2331484488   2.1358757666   0.0000000000 
  1.2331484488   2.1358757666   0.0000000000 
    1    1    1
 1 1 1      0.3640600001
 1 1 2      1.8059662006
 1 1 3      0.0000000000
 1 2 1      1.8059662006
 1 2 2      3.6561574891
 1 2 3      0.0000000000
 1 3 1      0.0000000000
 1 3 2      0.0000000000
 1 3 3      0.6371435755
 2 1 1      3.7343883852
 2 1 2      6.4645637030
 2 1 3      0.0000000000
 2 2 1      6.4645637030
 2 2 2      5.4544691398
 2 2 3      0.0000000000
 2 3 1      0.0000000000
 2 3 2      0.0000000000
 2 3 3     -0.1039156073
 3 1 1      0.0000000000
 3 1 2      0.0000000000
 3 1 3     -0.4550320017
 3 2 1      0.0000000000
 3 2 2      0.0000000000
 3 2 3     -2.6525627369
 3 3 1     -0.4550320017
 3 3 2     -2.6525627369
 3 3 3      0.0000000000

   29
  1.2331484488   2.1358757666   0.0000000000 
  0.0000000000   0.0000000000   0.0000000000 
    1    1    2
 1 1 1      0.5064778840
 1 1 2      0.2687951359
 1 1 3      0.0000000000
 1 2 1      0.1653437933
 1 2 2      0.2285536218
 1 2 3      0.0000000000
 1 3 1      0.0000000000
 1 3 2      0.0000000000
 1 3 3     -1.6348865934
 2 1 1     -3.8603031175
 2 1 2      2.5527619494
 2 1 3      0.0000000000
 2 2 1     -2.2748376873
 2 2 2      0.7521678726
 2 2 3      0.0000000000
 2 3 1      0.0000000000
 2 3 2      0.0000000000
 2 3 3     -0.9604071810
 3 1 1      0.0000000000
 3 1 2      0.0000000000
 3 1 3      0.0142937201
 3 2 1      0.0000000000
 3 2 2      0.0000000000
 3 2 3      1.8960569127
 3 3 1      0.0708599699
 3 3 2     -0.0409110227
 3 3 3      0.0000000000

   30
  1.2331484488   2.1358757666   0.0000000000 
  2.4662968976   0.0000000000   0.0000000000 
    1    1    2
 1 1 1     -0.5491307072
 1 1 2      0.3121900210
 1 1 3      0.0000000000
 1 2 1      0.1718490891
 1 2 2     -0.5976093447
 1 2 3      0.0000000000
 1 3 1      0.0000000000
 1 3 2      0.0000000000
 1 3 3     -0.0912783142
 2 1 1      0.1249031950
 2 1 2     -0.2693729302
 2 1 3      0.0000000000
 2 2 1     -1.4787611659
 2 2 2     -0.0543907197
 2 2 3      0.0000000000
 2 3 1      0.0000000000
 2 3 2      0.0000000000
 2 3 3     -0.8323994788
 3 1 1      0.0000000000
 3 1 2      0.0000000000
 3 1 3      0.5530041110
 3 2 1      0.0000000000
 3 2 2      0.0000000000
 3 2 3      0.5627678421
 3 3 1     -0.4322326616
 3 3 2      0.0839481181
 3 3 3      0.0000000000

   31
  1.2331484488   2.1358757666   0.0000000000 
 -1.2331484488   2.1358757666   0.0000000000 
    1    1    2
 1 1 1     -0.0961383889
 1 1 2      0.0285345714
 1 1 3      0.0000000000
 1 2 1     -0.1518064518
 1 2 2      0.1473280625
 1 2 3      0.0000000000
 1 3 1      0.0000000000
 1 3 2      0.0000000000
 1 3 3     -0.1564376084
 2 1 1      0.3793409573
 2 1 2      0.6995079193
 2 1 3      0.0000000000
 2 2 1      0.1189736037
 2 2 2      0.2140328252
 2 2 3      0.0000000000
 2 3 1      0.0000000000
 2 3 2      0.0000000000
 2 3 3      0.2359241368
 3 1 1      0.0000000000
 3 1 2      0.0000000000
 3 1 3      0.3258701122
 3 2 1      0.0000000000
 3 2 2      0.0000000000
 3 2 3      0.0972006487
 3 3 1     -0.1749975662
 3 3 2     -0.1548708916
 3 3 3      0.0000000000

   32
  1.2331484488   2.1358757666   0.0000000000 
  1.2331484488   2.1358757666   0.0000000000 
    1    1    2
 1 1 1     -0.3549901737
 1 1 2     -0.2472826636
 1 1 3      0.0000000000
 1 2 1     -0.1703877417
 1 2 2      1.0982577918
 1 2 3      0.0000000000
 1 3 1      0.0000000000
 1 3 2      0.0000000000
 1 3 3     -0.7646933072
 2 1 1     -0.4349300163
 2 1 2     -2.1187714367
 2 1 3      0.0000000000
 2 2 1      0.2674511126
 2 2 2      0.1769438857
 2 2 3      0.0000000000
 2 3 1      0.0000000000
 2 3 2      0.0000000000
 2 3 3     -0.1177624791
 3 1 1      0.0000000000
 3 1 2      0.0000000000
 3 1 3     -0.8583712764
 3 2 1      0.0000000000
 3 2 2      0.0000000000
 3 2 3     -0.5368615618
 3 3 1     -0.4750459098
 3 3 2      0.2349258579
 3 3 3      0.0000000000

   33
  1.2331484488   2.1358757666   0.0000000000 
  0.0000000000   0.0000000000   0.0000000000 
    1    1    4
 1 1 1      0.1445764047
 1 1 2     -0.0567086323
 1 1 3      0.1962573525
 1 2 1      0.0274480305
 1 2 2     -0.0003957370
 1 2 3      0.0506217138
 1 3 1     -0.1563660646
 1 3 2      0.0190062145
 1 3 3     -0.0627386355
 2 1 1     -0.2609337655
 2 1 2      0.1661015706
 2 1 3     -0.3046243278
 2 2 1     -0.0211294288
 2 2 2     -0.0145635125
 2 2 3      0.0496088749
 2 3 1      0.0947884707
 2 3 2      0.0967558385
 2 3 3      0.0916794292
 3 1 1     -0.0157991814
 3 1 2      0.1759447986
 3 1 3     -0.1107660324
 3 2 1      0.1001625424
 3 2 2     -0.0438110447
 3 2 3      0.0084935375
 3 3 1      0.0860293816
 3 3 2     -0.0496690866
 3 3 3     -0.0054587691

   34
  0.0000000000   0.0000000000   0.0000000000 
  0.0000000000   0.0000000000   0.0000000000 
    1    2    1
 1 1 1      0.0000000000
 1 1 2     12.3488325185
 1 1 3      0.0000000000
 1 2 1     10.0508306359
 1 2 2     -0.0000000000
 1 2 3      0.0000000000
 1 3 1      0.0000000000
 1 3 2      0.0000000000
 1 3 3      0.0000000000
 2 1 1     12.3488325185
 2 1 2     -0.0000000000
 2 1 3      0.0000000000
 2 2 1     -0.0000000000
 2 2 2    -139.6655536992
 2 2 3      0.0000000000
 2 3 1      0.0000000000
 2 3 2      0.0000000000
 2 3 3     12.9388581306
 3 1 1      0.0000000000
 3 1 2      0.0000000000
 3 1 3      0.0000000000
 3 2 1      0.0000000000
 3 2 2      0.0000000000
 3 2 3     11.1278886895
 3 3 1      0.0000000000
 3 3 2     12.9388581306
 3 3 3      0.0000000000

   35
  0.0000000000   0.0000000000   0.0000000000 
  2.4662968976   0.0000000000   0.0000000000 
    1    2    1
 1 1 1      0.8517830610
 1 1 2      0.0577314797
 1 1 3      0.0000000000
 1 2 1     -0.7990117950
 1 2 2     -0.5442531741
 1 2 3      0.0000000000
 1 3 1      0.0000000000
 1 3 2      0.0000000000
 1 3 3     -0.7638733031
 2 1 1      0.3185196061
 2 1 2     -0.0610978685
 2 1 3      0.0000000000
 2 2 1     -0.3394786300
 2 2 2     -1.0860937339
 2 2 3      0.0000000000
 2 3 1      0.0000000000
 2 3 2      0.0000000000
 2 3 3      0.1975316875
 3 1 1      0.0000000000
 3 1 2      0.0000000000
 3 1 3      0.1434151279
 3 2 1      0.0000000000
 3 2 2      0.0000000000
 3 2 3     -0.4162985244
 3 3 1      0.7665182518
 3 3 2      0.3371504005
 3 3 3      0.0000000000

   36
  0.0000000000   0.0000000000   0.0000000000 
 -1.2331484488   2.1358757666   0.0000000000 
    1    2    1
 1 1 1     -0.5064778840
 1 1 2      0.1653437933
 1 1 3      0.0000000000
 1 2 1      0.2687951359
 1 2 2     -0.2285536218
 1 2 3      0.0000000000
 1 3 1      0.0000000000
 1 3 2      0.0000000000
 1 3 3      1.6348865934
 2 1 1     -3.8603031175
 2 1 2      2.2748376873
 2 1 3      0.0000000000
 2 2 1     -2.5527619494
 2 2 2      0.7521678726
 2 2 3      0.0000000000
 2 3 1      0.0000000000
 2 3 2      0.0000000000
 2 3 3     -0.9604071810
 3 1 1      0.0000000000
 3 1 2      0.0000000000
 3 1 3     -0.0708599699
 3 2 1      0.0000000000
 3 2 2      0.0000000000
 3 2 3     -0.0409110227
 3 3 1     -0.0142937201
 3 3 2      1.8960569127
 3 3 3      0.0000000000

   37
  0.0000000000   0.0000000000   0.0000000000 
  1.2331484488   2.1358757666   0.0000000000 
    1    2    1
 1 1 1      0.5064778840
 1 1 2      0.1653437933
 1 1 3      0.0000000000
 1 2 1      0.2687951359
 1 2 2      0.2285536218
 1 2 3      0.0000000000
 1 3 1      0.0000000000
 1 3 2      0.0000000000
 1 3 3     -1.6348865934
 2 1 1     -3.8603031175
 2 1 2     -2.2748376873
 2 1 3      0.0000000000
 2 2 1      2.5527619494
 2 2 2      0.7521678726
 2 2 3      0.0000000000
 2 3 1      0.0000000000
 2 3 2      0.0000000000
 2 3 3     -0.9604071810
 3 1 1      0.0000000000
 3 1 2      0.0000000000
 3 1 3      0.0708599699
 3 2 1      0.0000000000
 3 2 2      0.0000000000
 3 2 3     -0.0409110227
 3 3 1      0.0142937201
 3 3 2      1.8960569127
 3 3 3      0.0000000000

   38
  0.0000000000   0.0000000000   0.0000000000 
  0.0000000000   0.0000000000   0.0000000000 
    1    2    2
 1 1 1     -0.0000000000
 1 1 2    -12.7976283724
 1 1 3      0.0000000000
 1 2 1    -12.7976283724
 1 2 2      0.0000000000
 1 2 3      0.0000000000
 1 3 1      0.0000000000
 1 3 2      0.0000000000
 1 3 3     -0.0000000000
 2 1 1     -7.0829410030
 2 1 2      0.0000000000
 2 1 3      0.0000000000
 2 2 1      0.0000000000
 2 2 2    139.6067767298
 2 2 3      0.0000000000
 2 3 1      0.0000000000
 2 3 2      0.0000000000
 2 3 3    -11.3972121341
 3 1 1      0.0000000000
 3 1 2      0.0000000000
 3 1 3     -0.0000000000
 3 2 1      0.0000000000
 3 2 2      0.0000000000
 3 2 3    -13.3381418274
 3 3 1     -0.0000000000