 128  128
1 1
    15.825206740660303     0.000000000000000     0.000000000000000
     0.000000000000001    15.825206740660303     0.000000000000000
     0.000000000000001     0.000000000000000    15.825206740660306
1 2
     0.505448942803603     0.210372841072719     0.210372841072719
    -0.210329530782371    -0.245233735715302    -0.232006154324688
    -0.210329530782371    -0.232006154324688    -0.245233735715302
1 3
     0.034049666387866     0.000000000000000     0.000000000000000
     0.000000000000000    -0.010274438307336    -0.044209730173345
     0.000000000000000    -0.044209730173345    -0.010274438307336
1 4
     0.505448942803603    -0.210372841072719    -0.210372841072719
     0.210329530782371    -0.245233735715302    -0.232006154324688
     0.210329530782371    -0.232006154324688    -0.245233735715302
1 5
    -0.245233735715302    -0.210329530782371    -0.232006154324688
     0.210372841072719     0.505448942803603     0.210372841072719
    -0.232006154324688    -0.210329530782371    -0.245233735715302
1 6
    -0.010141148679082     0.024379981155140    -0.010717263929054
     0.024379981155140    -0.010141148679082    -0.010717263929054
    -0.007199761246041    -0.007199761246041    -0.001152230499943
1 7
    -0.010141148679082     0.010717263929054    -0.024379981155140
     0.007199761246041    -0.001152230499943    -0.007199761246041
    -0.024379981155140    -0.010717263929054    -0.010141148679082
1 8
    -0.245233735715302     0.232006154324688     0.210329530782371
     0.232006154324688    -0.245233735715302    -0.210329530782371
    -0.210372841072719     0.210372841072719     0.505448942803603
1 9
    -0.010274438307336     0.000000000000000    -0.044209730173345
    -0.000000000000000     0.034049666387866    -0.000000000000000
    -0.044209730173345     0.000000000000000    -0.010274438307336
1 10
    -0.001152230499943     0.007199761246041    -0.007199761246041
     0.010717263929054    -0.010141148679082    -0.024379981155140
    -0.010717263929054    -0.024379981155140    -0.010141148679082
1 11
    -0.010274438307336     0.044209730173345    -0.000000000000000
     0.044209730173345    -0.010274438307336     0.000000000000000
    -0.000000000000000     0.000000000000000     0.034049666387866
1 12
    -0.001368605174987     0.010595818339385    -0.010595818339385
     0.007063466413968    -0.009982138041663    -0.024615005771537
    -0.007063466413968    -0.024615005771537    -0.009982138041663
1 13
    -0.245233735715302     0.210329530782371    -0.232006154324688
    -0.210372841072719     0.505448942803603    -0.210372841072719
    -0.232006154324688     0.210329530782371    -0.245233735715302
1 14
    -0.245233735715302     0.232006154324688    -0.210329530782371
     0.232006154324688    -0.245233735715302     0.210329530782371
     0.210372841072719    -0.210372841072719     0.505448942803603
1 15
    -0.009982138041663     0.007063466413968    -0.024615005771537
     0.010595818339385    -0.001368605174987    -0.010595818339385
    -0.024615005771537    -0.007063466413968    -0.009982138041663
1 16
    -0.009982138041663     0.024615005771537    -0.007063466413968
     0.024615005771537    -0.009982138041663    -0.007063466413968
    -0.010595818339385    -0.010595818339385    -0.001368605174987
1 17
    -0.245233735715302    -0.232006154324688    -0.210329530782371
    -0.232006154324688    -0.245233735715302    -0.210329530782371
     0.210372841072719     0.210372841072719     0.505448942803603
1 18
    -0.010141148679082    -0.010717263929054     0.024379981155140
    -0.007199761246041    -0.001152230499943    -0.007199761246041
     0.024379981155140    -0.010717263929054    -0.010141148679082
1 19
    -0.010141148679082    -0.024379981155140     0.010717263929054
    -0.024379981155140    -0.010141148679082    -0.010717263929054
     0.007199761246041    -0.007199761246041    -0.001152230499943
1 20
    -0.245233735715302     0.210329530782371     0.232006154324688
    -0.210372841072719     0.505448942803603     0.210372841072719
     0.232006154324688    -0.210329530782371    -0.245233735715302
1 21
    -0.001152230499943    -0.007199761246041    -0.007199761246041
    -0.010717263929054    -0.010141148679082     0.024379981155140
    -0.010717263929054     0.024379981155140    -0.010141148679082
1 22
    -0.000008485281374    -0.000000000000000    -0.000000000000000
    -0.000000000000000    -0.000008485281374     0.000000000000000
     0.000000000000000    -0.000000000000000    -0.000008485281374
1 23
    -0.001152230499943     0.007199761246041     0.007199761246041
     0.010717263929054    -0.010141148679082     0.024379981155140
     0.010717263929054     0.024379981155140    -0.010141148679082
1 24
    -0.023241185684039    -0.000000000000000    -0.000000000000000
    -0.000000000000000    -0.019514556170491     0.000031289475068
    -0.000000000000000     0.000031289475068    -0.019514556170491
1 25
    -0.010141148679082    -0.024379981155140    -0.010717263929054
    -0.024379981155140    -0.010141148679082     0.010717263929054
    -0.007199761246041     0.007199761246041    -0.001152230499943
1 26
    -0.010141148679082     0.010717263929054     0.024379981155140
     0.007199761246041    -0.001152230499943     0.007199761246041
     0.024379981155140     0.010717263929054    -0.010141148679082
1 27
    -0.009907626664595    -0.003682523728072     0.000842075788046
    -0.003682523728072    -0.009907626664595     0.000842075788046
    -0.000822453574868    -0.000822453574868     0.001304435234594
1 28
    -0.009907626664595    -0.000842075788046     0.003682523728072
     0.000822453574868     0.001304435234594    -0.000822453574868
     0.003682523728072     0.000842075788046    -0.009907626664595
1 29
     0.505448942803603    -0.210372841072719     0.210372841072719
     0.210329530782371    -0.245233735715302     0.232006154324688
    -0.210329530782371     0.232006154324688    -0.245233735715302
1 30
    -0.019514556170491    -0.000000000000000     0.000031289475068
    -0.000000000000000    -0.023241185684039    -0.000000000000000
     0.000031289475068    -0.000000000000000    -0.019514556170491
1 31
     0.001304435234594     0.000822453574868    -0.000822453574868
    -0.000842075788046    -0.009907626664595     0.003682523728072
     0.000842075788046     0.003682523728072    -0.009907626664595
1 32
    -0.019514556170491    -0.000031289475068     0.000000000000000
    -0.000031289475068    -0.019514556170491    -0.000000000000000
    -0.000000000000000    -0.000000000000000    -0.023241185684039
1 33
    -0.010274438307336    -0.044209730173345    -0.000000000000000
    -0.044209730173345    -0.010274438307336    -0.000000000000000
    -0.000000000000000    -0.000000000000000     0.034049666387866
1 34
    -0.001152230499943    -0.007199761246041     0.007199761246041
    -0.010717263929054    -0.010141148679082    -0.024379981155140
     0.010717263929054    -0.024379981155140    -0.010141148679082
1 35
    -0.010274438307336    -0.000000000000000     0.044209730173345
     0.000000000000000     0.034049666387866     0.000000000000000
     0.044209730173345     0.000000000000000    -0.010274438307336
1 36
    -0.001368605174987    -0.010595818339385     0.010595818339385
    -0.007063466413968    -0.009982138041663    -0.024615005771537
     0.007063466413968    -0.024615005771537    -0.009982138041663
1 37
    -0.010141148679082    -0.010717263929054    -0.024379981155140
    -0.007199761246041    -0.001152230499943     0.007199761246041
    -0.024379981155140     0.010717263929054    -0.010141148679082
1 38
    -0.010141148679082     0.024379981155140     0.010717263929054
     0.024379981155140    -0.010141148679082     0.010717263929054
     0.007199761246041     0.007199761246041    -0.001152230499943
1 39
    -0.009907626664595     0.000842075788046    -0.003682523728072
    -0.000822453574868     0.001304435234594    -0.000822453574868
    -0.003682523728072     0.000842075788046    -0.009907626664595
1 40
    -0.009907626664595     0.003682523728072    -0.000842075788046
     0.003682523728072    -0.009907626664595     0.000842075788046
     0.000822453574868    -0.000822453574868     0.001304435234594
1 41
     0.034049666387866     0.000000000000000     0.000000000000000
     0.000000000000000    -0.010274438307336     0.044209730173345
     0.000000000000000     0.044209730173345    -0.010274438307336
1 42
     0.001304435234594    -0.000822453574868    -0.000822453574868
     0.000842075788046    -0.009907626664595    -0.003682523728072
     0.000842075788046    -0.003682523728072    -0.009907626664595
1 43
     0.003145210962718     0.000000000000000    -0.000000000000000
     0.000000000000000     0.003145210962718     0.000000000000000
     0.000000000000000     0.000000000000000     0.003145210962718
1 44
     0.001304435234594     0.000822453574868     0.000822453574868
    -0.000842075788046    -0.009907626664595    -0.003682523728072
    -0.000842075788046    -0.003682523728072    -0.009907626664595
1 45
    -0.009982138041663    -0.007063466413968    -0.024615005771537
    -0.010595818339385    -0.001368605174987     0.010595818339385
    -0.024615005771537     0.007063466413968    -0.009982138041663
1 46
    -0.009907626664595     0.003682523728072     0.000842075788046
     0.003682523728072    -0.009907626664595    -0.000842075788046
    -0.000822453574868     0.000822453574868     0.001304435234594
1 47
    -0.009907626664595    -0.000842075788046    -0.003682523728072
     0.000822453574868     0.001304435234594     0.000822453574868
    -0.003682523728072    -0.000842075788046    -0.009907626664595
1 48
    -0.009982138041663     0.024615005771537     0.007063466413968
     0.024615005771537    -0.009982138041663     0.007063466413968
     0.010595818339385     0.010595818339385    -0.001368605174987
1 49
    -0.245233735715302    -0.232006154324688     0.210329530782371
    -0.232006154324688    -0.245233735715302     0.210329530782371
    -0.210372841072719    -0.210372841072719     0.505448942803603
1 50
    -0.245233735715302    -0.210329530782371     0.232006154324688
     0.210372841072719     0.505448942803603    -0.210372841072719
     0.232006154324688     0.210329530782371    -0.245233735715302
1 51
    -0.009982138041663    -0.024615005771537     0.007063466413968
    -0.024615005771537    -0.009982138041663    -0.007063466413968
     0.010595818339385    -0.010595818339385    -0.001368605174987
1 52
    -0.009982138041663    -0.007063466413968     0.024615005771537
    -0.010595818339385    -0.001368605174987    -0.010595818339385
     0.024615005771537    -0.007063466413968    -0.009982138041663
1 53
     0.505448942803603     0.210372841072719    -0.210372841072719
    -0.210329530782371    -0.245233735715302     0.232006154324688
     0.210329530782371     0.232006154324688    -0.245233735715302
1 54
    -0.019514556170491     0.000031289475068    -0.000000000000000
     0.000031289475068    -0.019514556170491    -0.000000000000000
    -0.000000000000000    -0.000000000000000    -0.023241185684039
1 55
     0.001304435234594    -0.000822453574868     0.000822453574868
     0.000842075788046    -0.009907626664595     0.003682523728072
    -0.000842075788046     0.003682523728072    -0.009907626664595
1 56
    -0.019514556170491    -0.000000000000000    -0.000031289475068
    -0.000000000000000    -0.023241185684039    -0.000000000000000
    -0.000031289475068    -0.000000000000000    -0.019514556170491
1 57
    -0.009982138041663    -0.024615005771537    -0.007063466413968
    -0.024615005771537    -0.009982138041663     0.007063466413968
    -0.010595818339385     0.010595818339385    -0.001368605174987
1 58
    -0.009907626664595     0.000842075788046     0.003682523728072
    -0.000822453574868     0.001304435234594     0.000822453574868
     0.003682523728072    -0.000842075788046    -0.009907626664595
1 59
    -0.009907626664595    -0.003682523728072    -0.000842075788046
    -0.003682523728072    -0.009907626664595    -0.000842075788046
     0.000822453574868     0.000822453574868     0.001304435234594
1 60
    -0.009982138041663     0.007063466413968     0.024615005771537
     0.010595818339385    -0.001368605174987     0.010595818339385
     0.024615005771537     0.007063466413968    -0.009982138041663
1 61
    -0.001368605174987    -0.010595818339385    -0.010595818339385
    -0.007063466413968    -0.009982138041663     0.024615005771537
    -0.007063466413968     0.024615005771537    -0.009982138041663
1 62
    -0.023241185684039    -0.000000000000000    -0.000000000000000
    -0.000000000000000    -0.019514556170491    -0.000031289475068
    -0.000000000000000    -0.000031289475068    -0.019514556170491
1 63
    -0.001368605174987     0.010595818339385     0.010595818339385
     0.007063466413968    -0.009982138041663     0.024615005771537
     0.007063466413968     0.024615005771537    -0.009982138041663
1 64
    -0.000019091883092    -0.000000000000000     0.000000000000000
     0.000000000000000    -0.000019091883092    -0.000000000000000
    -0.000000000000000    -0.000000000000000    -0.000019091883092
1 65
    -3.918671053260586    -1.989617551311302    -1.989617551311302
    -1.989617551311302    -3.918671053260586    -1.989617551311302
    -1.989617551311302    -1.989617551311302    -3.918671053260586
1 66
    -0.122833817056954     0.062619608774927     0.062619608774927
     0.078077758506794    -0.024896080717059    -0.022480603952526
     0.078077758506794    -0.022480603952526    -0.024896080717059
1 67
    -0.122833817056954    -0.062619608774927    -0.062619608774927
    -0.078077758506794    -0.024896080717059    -0.022480603952526
    -0.078077758506794    -0.022480603952526    -0.024896080717059
1 68
    -3.918671053260586     1.989617551311302     1.989617551311302
     1.989617551311302    -3.918671053260586    -1.989617551311302
     1.989617551311301    -1.989617551311302    -3.918671053260586
1 69
    -0.024896080717059     0.078077758506794    -0.022480603952526
     0.062619608774927    -0.122833817056954     0.062619608774927
    -0.022480603952526     0.078077758506794    -0.024896080717059
1 70
    -0.000320849701963     0.000054535610499    -0.000054535610499
     0.000054535610499    -0.000320849701963    -0.000054535610499
    -0.000054535610499    -0.000054535610499    -0.000320849701963
1 71
    -0.024896080717059     0.022480603952526    -0.078077758506794
     0.022480603952526    -0.024896080717059     0.078077758506794
    -0.062619608774927     0.062619608774927    -0.122833817056954
1 72
     0.052218421577064    -0.044524127525930     0.044524127525930
    -0.050917698653071     0.050702561414895     0.038781890132610
     0.050917698653071     0.038781890132610     0.050702561414895
1 73
    -0.024896080717059    -0.078077758506794    -0.022480603952526
    -0.062619608774927    -0.122833817056954    -0.062619608774927
    -0.022480603952526    -0.078077758506794    -0.024896080717059
1 74
    -0.024896080717059     0.022480603952526     0.078077758506794
     0.022480603952526    -0.024896080717059    -0.078077758506794
     0.062619608774927    -0.062619608774927    -0.122833817056954
1 75
     0.010565677912837    -0.004851548014069     0.009455962208112
    -0.004851548014069     0.010565677912837     0.009455962208112
     0.007364870679448     0.007364870679448     0.003038084285368
1 76
     0.010565677912837    -0.009455962208112     0.004851548014069
    -0.007364870679448     0.003038084285368     0.007364870679448
     0.004851548014069     0.009455962208112     0.010565677912837
1 77
    -3.918671053260586     1.989617551311302    -1.989617551311302
     1.989617551311302    -3.918671053260586     1.989617551311302
    -1.989617551311302     1.989617551311302    -3.918671053260586
1 78
     0.050702561414895    -0.050917698653071     0.038781890132610
    -0.044524127525930     0.052218421577064     0.044524127525930
     0.038781890132610     0.050917698653071     0.050702561414895
1 79
     0.003038084285368    -0.007364870679448     0.007364870679448
    -0.009455962208112     0.010565677912837     0.004851548014069
     0.009455962208112     0.004851548014069     0.010565677912837
1 80
     0.050702561414895    -0.038781890132610     0.050917698653071
    -0.038781890132610     0.050702561414895     0.050917698653071
     0.044524127525930     0.044524127525930     0.052218421577064
1 81
    -0.024896080717059    -0.022480603952526     0.078077758506794
    -0.022480603952526    -0.024896080717059     0.078077758506794
     0.062619608774927     0.062619608774927    -0.122833817056954
1 82
    -0.000320849701963    -0.000054535610499     0.000054535610499
    -0.000054535610499    -0.000320849701963    -0.000054535610499
     0.000054535610499    -0.000054535610499    -0.000320849701963
1 83
    -0.024896080717059    -0.078077758506794     0.022480603952526
    -0.062619608774927    -0.122833817056954     0.062619608774927
     0.022480603952526     0.078077758506794    -0.024896080717059
1 84
     0.052218421577064     0.044524127525930    -0.044524127525930
     0.050917698653071     0.050702561414895     0.038781890132610
    -0.050917698653071     0.038781890132610     0.050702561414895
1 85
    -0.000320849701963    -0.000054535610499    -0.000054535610499
    -0.000054535610499    -0.000320849701963     0.000054535610499
    -0.000054535610499     0.000054535610499    -0.000320849701963
1 86
    -0.000320849701963     0.000054535610499     0.000054535610499
     0.000054535610499    -0.000320849701963     0.000054535610499
     0.000054535610499     0.000054535610499    -0.000320849701963
1 87
     0.025441701987092     0.003528197673078     0.003528197673078
     0.007092811345387    -0.003874856772555     0.001345800981293
     0.007092811345387     0.001345800981293    -0.003874856772555
1 88
     0.025441701987092    -0.003528197673078    -0.003528197673078
    -0.007092811345387    -0.003874856772555     0.001345800981293
    -0.007092811345387     0.001345800981293    -0.003874856772555
1 89
    -0.122833817056954    -0.062619608774927     0.062619608774927
    -0.078077758506794    -0.024896080717059     0.022480603952526
     0.078077758506794     0.022480603952526    -0.024896080717059
1 90
    -0.003874856772555     0.007092811345387     0.001345800981293
     0.003528197673078     0.025441701987092     0.003528197673078
     0.001345800981293     0.007092811345387    -0.003874856772555
1 91
    -0.001067377686201     0.001217814653899    -0.001217814653899
     0.001217814653899    -0.001067377686201    -0.001217814653899
    -0.001217814653899    -0.001217814653899    -0.001067377686201
1 92
    -0.003874856772555    -0.001345800981293    -0.007092811345387
    -0.001345800981293    -0.003874856772555     0.007092811345387
    -0.003528197673078     0.003528197673078     0.025441701987092
1 93
     0.050702561414895     0.050917698653071     0.038781890132610
     0.044524127525930     0.052218421577064    -0.044524127525930
     0.038781890132610    -0.050917698653071     0.050702561414895
1 94
    -0.003874856772555    -0.007092811345387     0.001345800981293
    -0.003528197673078     0.025441701987092    -0.003528197673078
     0.001345800981293    -0.007092811345387    -0.003874856772555
1 95
    -0.003874856772555    -0.001345800981293     0.007092811345387
    -0.001345800981293    -0.003874856772555    -0.007092811345387
     0.003528197673078    -0.003528197673078     0.025441701987092
1 96
     0.050702561414895    -0.038781890132610    -0.050917698653071
    -0.038781890132610     0.050702561414895    -0.050917698653071
    -0.044524127525930    -0.044524127525930     0.052218421577064
1 97
    -0.024896080717059    -0.022480603952526    -0.078077758506794
    -0.022480603952526    -0.024896080717059    -0.078077758506794
    -0.062619608774927    -0.062619608774927    -0.122833817056954
1 98
    -0.024896080717059     0.078077758506794     0.022480603952526
     0.062619608774927    -0.122833817056954    -0.062619608774927
     0.022480603952526    -0.078077758506794    -0.024896080717059
1 99
     0.010565677912837     0.009455962208112    -0.004851548014069
     0.007364870679448     0.003038084285368     0.007364870679448
    -0.004851548014069     0.009455962208112     0.010565677912837
1 100
     0.010565677912837     0.004851548014069    -0.009455962208112
     0.004851548014069     0.010565677912837     0.009455962208112
    -0.007364870679448     0.007364870679448     0.003038084285368
1 101
    -0.122833817056954     0.062619608774927    -0.062619608774927
     0.078077758506794    -0.024896080717059     0.022480603952526
    -0.078077758506794     0.022480603952526    -0.024896080717059
1 102
    -0.003874856772555     0.001345800981293     0.007092811345387
     0.001345800981293    -0.003874856772555     0.007092811345387
     0.003528197673078     0.003528197673078     0.025441701987092
1 103
    -0.001067377686201    -0.001217814653899     0.001217814653899
    -0.001217814653899    -0.001067377686201    -0.001217814653899
     0.001217814653899    -0.001217814653899    -0.001067377686201
1 104
    -0.003874856772555    -0.007092811345387    -0.001345800981293
    -0.003528197673078     0.025441701987092     0.003528197673078
    -0.001345800981293     0.007092811345387    -0.003874856772555
1 105
     0.003038084285368     0.007364870679448     0.007364870679448
     0.009455962208112     0.010565677912837    -0.004851548014069
     0.009455962208112    -0.004851548014069     0.010565677912837
1 106
    -0.001067377686201    -0.001217814653899    -0.001217814653899
    -0.001217814653899    -0.001067377686201     0.001217814653899
    -0.001217814653899     0.001217814653899    -0.001067377686201
1 107
    -0.001067377686201     0.001217814653899     0.001217814653899
     0.001217814653899    -0.001067377686201     0.001217814653899
     0.001217814653899     0.001217814653899    -0.001067377686201
1 108
     0.003038084285368    -0.007364870679448    -0.007364870679448
    -0.009455962208112     0.010565677912837    -0.004851548014069
    -0.009455962208112    -0.004851548014069     0.010565677912837
1 109
     0.010565677912837     0.004851548014069     0.009455962208112
     0.004851548014069     0.010565677912837    -0.009455962208112
     0.007364870679448    -0.007364870679448     0.003038084285368
1 110
     0.025441701987092    -0.003528197673078     0.003528197673078
    -0.007092811345387    -0.003874856772555    -0.001345800981293
     0.007092811345387    -0.001345800981293    -0.003874856772555
1 111
     0.010565677912837    -0.009455962208112    -0.004851548014069
    -0.007364870679448     0.003038084285368    -0.007364870679448
    -0.004851548014069    -0.009455962208112     0.010565677912837
1 112
     0.010801232859320     0.009210684543388    -0.009210684543388
     0.009210684543388     0.010801232859320    -0.009210684543388
    -0.009210684543388    -0.009210684543388     0.010801232859320
1 113
    -3.918671053260586    -1.989617551311302     1.989617551311302
    -1.989617551311302    -3.918671053260586     1.989617551311302
     1.989617551311302     1.989617551311302    -3.918671053260586
1 114
     0.050702561414895     0.038781890132610    -0.050917698653071
     0.038781890132610     0.050702561414895     0.050917698653071
    -0.044524127525930     0.044524127525930     0.052218421577064
1 115
     0.003038084285368     0.007364870679448    -0.007364870679448
     0.009455962208112     0.010565677912837     0.004851548014069
    -0.009455962208112     0.004851548014069     0.010565677912837
1 116
     0.050702561414895     0.050917698653071    -0.038781890132610
     0.044524127525930     0.052218421577064     0.044524127525930
    -0.038781890132610     0.050917698653071     0.050702561414895
1 117
     0.050702561414895     0.038781890132610     0.050917698653071
     0.038781890132610     0.050702561414895    -0.050917698653071
     0.044524127525930    -0.044524127525930     0.052218421577064
1 118
    -0.003874856772555     0.001345800981293    -0.007092811345387
     0.001345800981293    -0.003874856772555    -0.007092811345387
    -0.003528197673078    -0.003528197673078     0.025441701987092
1 119
    -0.003874856772555     0.007092811345387    -0.001345800981293
     0.003528197673078     0.025441701987092    -0.003528197673078
    -0.001345800981293    -0.007092811345387    -0.003874856772555
1 120
     0.050702561414895    -0.050917698653071    -0.038781890132610
    -0.044524127525930     0.052218421577064    -0.044524127525930
    -0.038781890132610    -0.050917698653071     0.050702561414895
1 121
     0.010565677912837     0.009455962208112     0.004851548014069
     0.007364870679448     0.003038084285368    -0.007364870679448
     0.004851548014069    -0.009455962208112     0.010565677912837
1 122
     0.025441701987092     0.003528197673078    -0.003528197673078
     0.007092811345387    -0.003874856772555    -0.001345800981293
    -0.007092811345387    -0.001345800981293    -0.003874856772555
1 123
     0.010565677912837    -0.004851548014069    -0.009455962208112
    -0.004851548014069     0.010565677912837    -0.009455962208112
    -0.007364870679448    -0.007364870679448     0.003038084285368
1 124
     0.010801232859320    -0.009210684543388     0.009210684543388
    -0.009210684543388     0.010801232859320    -0.009210684543388
     0.009210684543388    -0.009210684543388     0.010801232859320
1 125
     0.052218421577064     0.044524127525930     0.044524127525930
     0.050917698653071     0.050702561414895    -0.038781890132610
     0.050917698653071    -0.038781890132610     0.050702561414895
1 126
     0.052218421577064    -0.044524127525930    -0.044524127525930
    -0.050917698653071     0.050702561414895    -0.038781890132610
    -0.050917698653071    -0.038781890132610     0.050702561414895
1 127
     0.010801232859320    -0.009210684543388    -0.009210684543388
    -0.009210684543388     0.010801232859320     0.009210684543388
    -0.009210684543388     0.009210684543388     0.010801232859320
1 128
     0.010801232859320     0.009210684543388     0.009210684543388
     0.009210684543388     0.010801232859320     0.009210684543388
     0.009210684543388     0.009210684543388     0.010801232859320
2 1
     0.505448942803603    -0.210372841072719    -0.210372841072719
     0.210329530782371    -0.245233735715302    -0.232006154324688
     0.210329530782371    -0.232006154324688    -0.245233735715302
2 2
    15.825206740660303     0.000000000000001     0.000000000000000
     0.000000000000001    15.825206740660303    -0.000000000000001
     0.000000000000001    -0.000000000000001    15.825206740660306
2 3
     0.505448942803603     0.210372841072719     0.210372841072719
    -0.210329530782371    -0.245233735715302    -0.232006154324688
    -0.210329530782371    -0.232006154324688    -0.245233735715302
2 4
     0.034049666387866     0.000000000000000    -0.000000000000000
     0.000000000000000    -0.010274438307336    -0.044209730173345
     0.000000000000000    -0.044209730173345    -0.010274438307336
2 5
    -0.245233735715302     0.232006154324688     0.210329530782371
     0.232006154324688    -0.245233735715302    -0.210329530782371
    -0.210372841072719     0.210372841072719     0.505448942803603
2 6
    -0.245233735715302    -0.210329530782371    -0.232006154324688
     0.210372841072719     0.505448942803603     0.210372841072719
    -0.232006154324688    -0.210329530782371    -0.245233735715302
2 7
    -0.010141148679082     0.024379981155140    -0.010717263929054
     0.024379981155140    -0.010141148679082    -0.010717263929054
    -0.007199761246041    -0.007199761246041    -0.001152230499943
2 8
    -0.010141148679082     0.010717263929054    -0.024379981155140
     0.007199761246041    -0.001152230499943    -0.007199761246041
    -0.024379981155140    -0.010717263929054    -0.010141148679082
2 9
    -0.001368605174987     0.010595818339385    -0.010595818339385
     0.007063466413968    -0.009982138041663    -0.024615005771537
    -0.007063466413968    -0.024615005771537    -0.009982138041663
2 10
    -0.010274438307336     0.000000000000000    -0.044209730173345
     0.000000000000000     0.034049666387866    -0.000000000000000
    -0.044209730173345    -0.000000000000000    -0.010274438307336
2 11
    -0.001152230499943     0.007199761246041    -0.007199761246041
     0.010717263929054    -0.010141148679082    -0.024379981155140
    -0.010717263929054    -0.024379981155140    -0.010141148679082
2 12
    -0.010274438307336     0.044209730173345    -0.000000000000000
     0.044209730173345    -0.010274438307336    -0.000000000000000
    -0.000000000000000     0.000000000000000     0.034049666387866
2 13
    -0.009982138041663     0.024615005771537    -0.007063466413968
     0.024615005771537    -0.009982138041663    -0.007063466413968
    -0.010595818339385    -0.010595818339385    -0.001368605174987
2 14
    -0.245233735715302     0.210329530782371    -0.232006154324688
    -0.210372841072719     0.505448942803603    -0.210372841072719
    -0.232006154324688     0.210329530782371    -0.245233735715302
2 15
    -0.245233735715302     0.232006154324688    -0.210329530782371
     0.232006154324688    -0.245233735715302     0.210329530782371
     0.210372841072719    -0.210372841072719     0.505448942803603
2 16
    -0.009982138041663     0.007063466413968    -0.024615005771537
     0.010595818339385    -0.001368605174987    -0.010595818339385
    -0.024615005771537    -0.007063466413968    -0.009982138041663
2 17
    -0.245233735715302     0.210329530782371     0.232006154324688
    -0.210372841072719     0.505448942803603     0.210372841072719
     0.232006154324688    -0.210329530782371    -0.245233735715302
2 18
    -0.245233735715302    -0.232006154324688    -0.210329530782371