270
Config_type=OUTCAR Weight=1.0 Lattice="18.691600000 4.628690000 0.000000000 -18.691600000 4.628690000 0.000000000 -4.165020000 0.000000000 17.139200000" Energy=-1610.017422 Virial="90.54099 -1.65920 0.81378 -1.65920 116.99604 3.55318 0.81378 3.55318 78.85767" Properties=species:S:1:pos:R:3:force:R:3
Ga	      0.78494      1.57838      4.65959         0.041749     -0.861180     -0.377883
Ga	     -0.51956      1.45975     10.40730         1.004915     -0.136636      1.301789
Ga	     -1.87586      1.58245     16.14110        -0.267147     -0.981301     -0.887867
Ga	     -5.56778      3.09538      4.70942         2.391149      0.145089     -0.051256
Ga	     -6.77620      3.17398     10.36180         0.716228     -1.001352     -0.014761
Ga	     -8.20193      3.18924     15.94670         1.296086     -1.333474      0.595371
Ga	    -11.60570      4.71628      4.62036         0.671766      0.527512      0.766353
Ga	    -12.99900      4.58400     10.26500        -0.048474      0.999559      1.236793
Ga	    -14.42850      4.69380     16.13460         0.530464     -0.087830     -0.417362
Ga	      7.11508      3.15560      4.61865        -0.644007      1.400876      1.591562
Ga	      5.53641      2.99587     10.37030         0.790663      0.438735      0.086445
Ga	      4.28624      3.11780     16.14300         0.643244     -0.425240      0.271254
Ga	      0.76788      4.66901      4.67545         0.552691     -0.964852     -0.273517
Ga	     -0.50430      4.56762     10.48210        -0.696398     -0.053213      0.183841
Ga	     -1.93483      4.55520     15.97060         0.822139      0.509718      0.346790
Ga	     -5.37203      6.17551      4.66434         0.358590      1.131076      0.600190
Ga	     -6.75535      6.18131     10.29770        -0.272065     -0.514320      0.924986
Ga	     -8.15156      6.15799     16.08290        -0.386824      0.307363      0.222562
Ga	     13.27360      4.68248      4.65877         1.006083     -0.876158      0.368787
Ga	     11.90280      4.64476     10.37790        -0.236012      0.128492     -0.336530
Ga	     10.55050      4.63892     16.05770         0.304593      1.474942      0.901558
Ga	      7.07253      6.22787      4.79952        -0.019935     -0.279576     -0.308916
Ga	      5.66537      6.16835     10.42010        -0.583668     -0.732071     -0.145398
Ga	      4.33406      6.20055     16.04320         0.625413      0.687589      0.385438
Ga	      0.83401      7.67675      4.58543         0.450573      0.212565      0.067801
Ga	     -0.52105      7.63452     10.37510         0.163278      0.335246      0.505175
Ga	     -2.07874      7.70110     16.13030         1.577147      0.167950      0.032195
Ga	     -2.26678      1.51885      1.11547        -0.798374      0.299581     -0.368603
Ga	     -3.68827      1.50773      6.81752         0.747372     -0.828752     -0.512938
Ga	     -5.03690      1.48659     12.56290        -0.092867      0.700582     -0.281032
Ga	     -8.43725      3.17685      0.94140        -0.881346     -0.383674     -0.003341
Ga	     -9.91161      3.02078      6.76710        -0.662523      0.208390      0.140070
Ga	    -11.21490      3.11754     12.47620        -0.674267      0.806069     -0.049074
Ga	    -14.57670      4.62619      1.10922        -0.630790      0.619912     -0.348029
Ga	    -16.15240      4.59344      6.77233         0.709637     -1.237205     -0.220487
Ga	    -17.50180      4.56689     12.62040        -0.168507      1.056003     -1.360052
Ga	      4.02409      3.16892      1.01601         0.697740     -0.221209     -0.098241
Ga	      2.63745      2.98384      6.58540         0.648897      1.232310      1.128242
Ga	      1.25689      3.11859     12.54990        -0.886056     -0.510947     -0.601959
Ga	     -2.27775      4.66590      0.95076        -0.359542     -0.800489      0.248450
Ga	     -3.54100      4.54098      6.74950        -0.739180      0.588971     -0.650970
Ga	     -4.99326      4.64519     12.49310         0.441205     -0.780206     -1.559992
Ga	     -8.44799      6.23050      1.15227         0.631926      1.714450     -1.810157
Ga	     -9.76881      6.14854      6.68018        -1.119610      0.399908      0.314366
Ga	    -11.27440      6.20312     12.42970        -0.177681     -0.302196      0.122112
Ga	     10.31460      4.70902      0.97958        -1.332558     -0.628335     -0.038009
Ga	      8.86652      4.58191      6.89903        -0.726133     -0.180459     -0.848245
Ga	      7.42714      4.66100     12.42310        -0.189308     -0.573280      0.414511
Ga	      4.01889      6.18687      1.02345        -0.284371      0.457338      0.067179
Ga	      2.68407      6.07352      6.72015        -0.106989      0.908982     -0.776214
Ga	      1.24586      6.18158     12.56570         0.006602     -0.526489     -1.051064
Ga	     -2.25151      7.78011      1.18958        -0.334418     -1.023194     -1.391642
Ga	     -3.59754      7.68213      6.94639        -0.144216      1.423155     -3.423065
Ga	     -5.01214      7.71542     12.37120         0.835682      0.758568      0.123101
Ga	     -5.62589      1.59151      1.75376         1.419158     -0.333269     -1.858534
Ga	     -6.96829      1.61378      7.37631         0.659248     -1.621508      1.630685
Ga	     -8.38200      1.65120     12.95880         1.860430     -1.347183      0.841189
Ga	    -11.65590      3.15915      1.73937         0.108976      0.162107      0.027443
Ga	    -13.20310      2.97901      7.38123         1.097216      0.289494      0.085383
Ga	    -14.54000      3.05459     13.09330        -0.032039      0.121091      0.635918
Ga	    -17.95570      4.68920      1.68331         0.002585     -0.316172     -0.199619
Ga	    -19.35730      4.56870      7.43095         1.602434     -0.100160     -0.136807
Ga	    -20.76640      4.59065     13.18540        -0.236071      0.302128      0.023609
Ga	      0.67400      3.13858      1.63378         0.798146     -1.273383      0.674528
Ga	     -0.65595      2.96615      7.52401         0.729810     -0.828561     -1.122595
Ga	     -2.02156      2.98701     13.11340        -1.258809      0.947894      0.698532
Ga	     -5.54400      4.62691      1.68265        -0.368005      0.288477      0.249407
Ga	     -6.98652      4.61486      7.33013         0.658592      0.397768     -0.411487
Ga	     -8.26366      4.72715     13.01610        -1.313866      0.497215      0.996063
Ga	    -11.78190      6.30377      1.71816        -0.104562      0.970263     -0.622326
Ga	    -13.21040      6.00422      7.35847         1.122681      0.998600     -0.476269
Ga	    -14.64210      6.13274     13.09560         1.929699      1.500641      0.706884
Ga	      7.08450      4.81423      1.70035        -0.509569     -0.707355      0.084506
Ga	      5.56981      4.47772      7.42009        -1.057827      0.191964      0.053613
Ga	      4.14318      4.57177     13.16710         1.905353      0.137350      0.872319
Ga	      0.59622      6.17994      1.60007        -0.304582      0.357717     -0.312736
Ga	     -0.69532      6.10258      7.50071         0.401806     -0.114795     -1.776325
Ga	     -2.00835      6.15633     13.15440        -1.456807     -0.782201     -0.062292
Ga	     -5.42906      7.80060      1.71745        -1.494281     -0.456894      0.784789
Ga	     -6.82438      7.74766      7.40722         0.108168      0.041083      0.016601
Ga	     -8.30153      7.78350     13.10650         0.454753     -0.111578      0.355103
Ga	      4.15143      1.58009      4.06774         0.890004      0.747705     -2.276176
Ga	      2.66903      1.34471      9.71281        -0.902429      0.837275      0.363313
Ga	      1.37812      1.58509     15.47470        -0.712870      0.473601     -0.270767
Ga	     -2.20099      2.95850      4.07085         1.201739      0.369255     -1.727443
Ga	     -3.37414      3.04322      9.83090        -0.854931     -0.544896     -0.947415
Ga	     -4.96011      3.19395     15.36160         0.493866     -1.009497      1.752112
Ga	     -8.31444      4.67486      3.94906        -1.213516      0.275719     -0.299967
Ga	     -9.68501      4.66644      9.69654        -0.677280     -1.107735      0.535883
Ga	    -11.07650      4.62803     15.39890        -1.519374      0.760331      0.130272
Ga	     10.40180      3.15571      4.09646        -0.521266     -0.438131     -1.630863
Ga	      8.91874      3.02814      9.73003        -0.540948      0.163807     -0.181413
Ga	      7.62723      3.08771     15.41240        -0.560282     -0.822763      1.263341
Ga	      4.31511      4.72105      3.97593        -1.484540     -0.461857     -0.084930
Ga	      2.74465      4.51142      9.68087        -0.393163      0.036148      0.906052
Ga	      1.44913      4.68763     15.50980         0.120103     -0.216388     -0.599574
Ga	     -2.07159      6.09296      3.99858        -1.247670     -0.185185      0.136894
Ga	     -3.41849      6.08889      9.70613        -0.129799      0.790121     -0.224409
Ga	     -4.91953      6.17381     15.30210        -0.232445      0.173835      1.111693
Ga	     16.55510      4.54175      4.10386        -1.135840     -1.159268     -0.170650
Ga	     15.32720      4.60341      9.81026        -1.179013     -0.364383      0.225865
Ga	     13.84560      4.67056     15.46520        -1.129694      0.083890      0.580104
Ga	     10.28700      6.19117      3.98006         0.015112      0.009680      0.436058
Ga	      8.93051      6.15441      9.74705         0.603380      0.744218      0.103107
Ga	      7.68138      6.18936     15.48440        -0.122600     -0.055727     -1.096739
Ga	      4.21822      7.77335      4.02369        -1.587511      0.169657     -0.023461
Ga	      2.76543      7.60183      9.71093        -0.508211      0.093288      0.251872
Ga	      1.40493      7.74447     15.56450        -0.500225      0.413930     -0.355928
O	     -1.16995      1.37911      4.41825         0.790972      2.535400      0.140048
O	     -2.41065      1.49069     10.16230         0.025796      0.323064     -0.158555
O	     -3.92923      1.60556     15.62510         1.135393      0.843624      0.506800
O	     -7.36224      3.14492      4.23342        -0.942956     -1.451052      0.271664
O	     -8.69462      3.10386     10.03060        -0.852297     -0.637664     -0.069896
O	    -10.07430      3.16727     15.77760        -0.545402     -1.485564     -0.136668
O	    -13.49870      4.66798      4.33316        -0.154062      0.719138     -0.151580
O	    -14.95170      4.53119     10.02320         0.307640     -0.382386      0.258657
O	    -16.38320      4.69607     15.80600         1.357310     -0.673515     -0.020774
O	      5.21055      3.14297      4.14031        -0.080742     -0.908325      0.701337
O	      3.64915      2.90342      9.92343         0.587173      0.605504      0.497306
O	      2.36974      3.09464     15.76840         0.816459      0.910291     -0.049679
O	     -1.16558      4.54368      4.25230         0.826982     -1.225813      0.799925
O	     -2.45750      4.58603     10.12430         0.845616      0.416700     -0.166253
O	     -3.80759      4.66535     15.61500        -1.351375      0.386138      0.113600
O	     -7.35350      6.18816      4.27982         0.574995      0.918105      0.271630
O	     -8.70219      6.16659     10.00190         0.518416      0.586069      0.060113
O	    -10.05570      6.12869     15.64040         0.258107      1.220237      0.111657
O	     11.35000      4.68751      4.48637        -0.140834      0.672188     -0.340485
O	      9.87580      4.59233      9.92836         1.531034     -0.114203      0.666406
O	      8.58028      4.58861     15.91060         0.352432      0.859156     -0.462296
O	      5.14939      6.27729      4.40719         1.002634     -0.336560      0.164747
O	      3.71034      6.06722     10.05610         0.653599     -0.264479      0.526357
O	      2.42412      6.25533     15.79840         0.052938     -1.046949     -0.003083
O	     -1.13437      7.62668      4.26436         1.253425      0.647342      0.679527
O	     -2.42112      7.65563     10.06620         0.018677     -0.346866      0.003111
O	     -3.95690      7.71146     15.78680         0.263166     -0.479664      0.002996
O	     -0.31859      1.55734      1.47221        -0.698518      0.462424     -0.513373
O	     -1.68799      1.41844      7.16671        -0.329286      1.362271     -0.007574
O	     -3.08633      1.50370     12.88890        -0.699487     -0.287758     -0.143444
O	     -6.62281      3.08820      1.41552         1.004595      0.911157      0.126288
O	     -8.00380      3.05236      6.98505         0.576101      1.072018      0.149661
O	     -9.28511      3.18864     12.93380        -1.754775      0.740051     -0.808668
O	    -12.61740      4.70880      1.29329        -0.851416     -0.410890      0.648130
O	    -14.20390      4.50168      7.12439        -0.663122     -0.072807     -0.445164
O	    -15.55170      4.63669     12.87590        -1.219948     -2.237130     -0.468457
O	      6.00770      3.29930      1.39091        -0.196858     -0.584302     -0.215360
O	      4.56624      2.92251      6.95598        -0.255376      1.005321     -0.060993
O	      3.16480      3.11579     12.75510        -0.464418     -1.112971     -0.112780
O	     -0.38066      4.57669      1.39609        -0.031308      1.493357     -0.755317
O	     -1.63064      4.45398      7.11244        -0.124716      1.844116      0.009948
O	     -3.08894      4.54094     12.85700         0.655874      1.032513      0.116868
O	     -6.44226      6.22193      1.33196        -0.469584      0.519277      0.236997
O	     -7.83996      6.23535      6.99100        -0.569385     -0.337835      0.114830
O	     -9.28201      6.25616     12.62580        -0.030373      0.045562      0.459727
O	     12.08900      4.67483      1.52845         1.398533     -0.699422      0.279165
O	     10.77940      4.63719      7.20512         0.063454     -0.179296     -0.112286
O	      9.39343      4.67750     12.72900        -0.468941      0.042676     -0.043089
O	      5.97262      6.29056      1.39557        -0.297322     -0.041236      0.008795
O	      4.56976      6.09265      7.11893         0.115746     -1.236010     -0.230171
O	      3.19521      6.07034     12.87150        -1.080354      1.847709     -0.434905
O	     -0.36685      7.81882      1.42356         0.976381     -0.816565     -0.198275
O	     -1.67116      7.70631      7.11397         0.502683     -1.549412      0.098982
O	     -3.08732      7.70629     12.90010        -0.147228     -1.029844     -0.280732
O	     -4.20419      1.53916      0.33693        -0.184010      0.081992      0.464685
O	     -5.55905      1.51291      6.12717        -0.260380      0.549231     -0.354385
O	     -6.92615      1.66551     11.67060        -0.273235     -0.755536      1.436318
O	    -10.36720      3.09241      0.33074         0.169324      0.298196      0.009641
O	    -11.78790      3.07374      6.03726        -0.130239      0.742957      1.358568
O	    -13.19860      3.09379     11.81480         0.756353     -0.400982     -1.005644
O	    -16.56320      4.69470      0.41567        -0.053002     -0.170287     -0.935789
O	    -17.93390      4.55539      6.04997        -1.551707      0.234305      0.268446
O	    -19.43640      4.58380     11.87470         0.987017     -0.285975     -0.624422
O	      1.99216      3.08848      0.19973         0.042312      0.787356      1.672385
O	      0.73419      3.02250      6.06588        -0.972516      0.286462      0.720401
O	     -0.70971      3.06912     11.88090         1.521224     -0.232731     -1.302694
O	     -4.31089      4.60206      0.27356         1.513705      0.454147     -0.035846
O	     -5.47186      4.67431      6.07932        -1.330651     -0.974819      0.913797
O	     -7.00293      4.69007     11.74830         2.409941      0.074925     -1.792719
O	    -10.43790      6.20418      0.40106         0.976341      0.252171     -0.571291
O	    -11.80640      6.17790      6.06469         0.653627     -0.401371     -0.402330
O	    -13.23140      6.09157     11.77590         0.178580      0.446714     -0.365970
O	      8.35906      4.70771      0.32175         0.095435      0.038506      0.280566
O	      6.90431      4.66209      6.15650         0.763818     -0.353313     -0.919581
O	      5.50211      4.56341     11.82570         0.114254      0.158898     -0.330456
O	      2.04614      6.26449      0.37212         0.242198     -0.475573     -0.072291
O	      0.77194      6.13077      6.11520        -1.550660     -0.242655      0.061451
O	     -0.70029      6.04209     11.84610         0.716155      0.931516     -0.278639
O	     -4.11387      7.76514      0.47337         0.781507     -0.283669     -1.838547
O	     -5.49261      7.68451      6.05585        -0.343108      0.305043      0.610600
O	     -6.87790      7.89032     11.77430        -0.949536     -0.998166      0.256707
O	      2.81336      1.51390      5.27943        -1.371523     -0.313244      0.974088
O	      1.38704      1.45597     11.16510        -0.181139      0.045126     -0.650145
O	      0.05500      1.75645     16.77390        -0.732326     -1.233829      0.327150
O	     -3.53254      3.04140      5.30610        -0.971606     -0.100157      1.485678
O	     -4.77176      3.09155     11.05360        -1.304961      0.287106      0.657828
O	     -6.31261      3.16825     16.71430         0.217015      0.028538     -0.042899
O	     -9.66274      4.65583      5.34627        -0.104238     -0.033674     -0.516311
O	    -11.09560      4.54663     11.04230         0.228337      0.448279     -0.443129
O	    -12.43940      4.68471     16.77200        -0.236306      0.046779     -0.469123
O	      8.98002      3.17160      5.32727         0.022898     -0.371779      0.615800
O	      7.53219      3.01667     11.01770        -0.179819      0.201754      0.273360
O	      6.28834      3.11926     16.83910        -0.289027     -0.249675     -0.799481
O	      2.83725      4.66696      5.21463        -0.578907     -0.555838      0.482042
O	      1.33197      4.54155     11.03860         1.361871      0.138816      0.317230
O	      0.00525      4.62379     16.64920        -1.046519      0.674956      1.849257
O	     -3.43376      6.08999      5.33984         0.051051     -0.027591      0.277706
O	     -4.82874      6.17308     10.90190        -0.809140     -0.068651      1.500217
O	     -6.27550      6.19893     16.74230         0.614545     -0.267934     -0.526992
O	     15.19330      4.59505      5.42037        -0.235708      0.383018      0.455089
O	     13.92960      4.68638     11.13680        -0.325681     -0.399164     -0.575582
O	     12.47050      4.72408     16.82020        -0.266066     -0.342029     -0.048212
O	      9.00753      6.11596      5.41731         0.114828      0.386246     -0.128388
O	      7.57860      6.10463     11.03680        -0.224064      0.660673      0.539711
O	      6.29946      6.21423     16.75570        -0.431903      0.186992      0.064216
O	      2.77819      7.66196      5.27350        -0.315326      0.276744      0.217729
O	      1.31839      7.64528     10.97470         0.729499     -0.176301      1.577661
O	      0.06852      7.80011     16.84790        -1.025613     -0.575008      0.355748
O	      3.66602      1.61454      2.15176         0.386488     -0.445695      1.288685
O	      2.22173      1.48765      7.90148        -0.273065      0.153458     -0.157615
O	      0.90794      1.53910     13.67910        -0.214281      0.211721      0.024800
O	     -2.65295      3.12670      2.19850         0.012614     -0.667246      0.496348
O	     -3.92355      3.00944      7.97519         0.049705      0.678883      0.608752
O	     -5.49258      3.19802     13.64030        -0.316301     -1.104141     -1.367212
O	     -8.82349      4.72597      2.11991        -0.455144     -1.496487      2.030678
O	    -10.15780      4.62098      7.91050        -0.156213     -0.198101     -0.465904
O	    -11.67590      4.70063     13.63820         0.370737     -0.385445     -0.519139
O	      9.85553      3.18537      2.20481         0.037245      0.076019      1.529576
O	      8.41761      2.99266      7.92333         0.295374     -0.026131     -0.151388
O	      7.18456      3.10529     13.64200        -0.377208      0.379608     -0.851107
O	      3.67815      4.63656      2.20535        -0.369740      0.941120     -0.513989
O	      2.53164      4.58349      7.87144        -1.173505     -1.281675     -0.534197
O	      0.91693      4.66568     13.70890        -0.009141     -0.263243     -0.098020
O	     -2.54630      6.12109      2.20108        -0.510972      0.274124     -0.341727
O	     -3.93622      6.21763      7.90786        -0.119736     -3.128342      1.632454
O	     -5.35789      6.20426     13.49100        -0.548500      0.007940      1.044945
O	     15.96790      4.52820      2.33231        -0.015601      1.983803      0.125086
O	     14.76120      4.54437      8.03167        -0.448058      1.234555      0.402982
O	     13.29360      4.53630     13.71140        -0.244892      0.628703     -1.033936
O	      9.85467      6.24433      2.18124        -0.338704     -0.046593      0.032665
O	      8.34128      6.07875      8.01250         0.141326      1.130655     -1.017410
O	      7.10490      6.25807     13.61060         0.456301     -0.990990      1.236451
O	      3.62068      7.77149      2.25906         0.230335     -0.406196     -0.280626
O	      2.31851      7.60684      7.92939        -0.469827      0.353205     -0.657019
O	      0.98634      7.67955     13.73330        -0.515338     -0.139409     -0.111131
O	     -5.06107      1.55688      3.47667         0.175737      0.614704      1.546359
O	     -6.45463      1.51734      9.24963         0.051822      0.843269     -1.783148
O	     -7.82882      1.60913     14.78530        -0.275162     -0.516204      0.499615
O	    -11.20640      3.14498      3.57162         0.178960      0.092155     -0.947068
O	    -12.76710      3.05126      9.21288         0.629293     -0.625114     -0.724173
O	    -13.99400      3.11764     14.88010        -0.247345      0.249565      0.567669
O	    -17.58070      4.68737      3.47014         0.489498     -0.709799      0.993743
O	    -18.78420      4.57998      9.24525        -0.296397     -0.133905     -0.584854
O	    -20.19720      4.54948     14.94600        -0.191047      0.523890      0.994967
O	      1.10377      3.07040      3.49540         0.179357      0.502800     -0.513760
O	     -0.28363      3.03065      9.32444         0.639281     -0.145352     -0.688202
O	     -1.46848      3.05014     14.86720         0.013081     -0.386457      0.280061
O	     -5.28858      4.67730      3.54921         0.834108     -1.197230     -1.271097
O	     -6.54744      4.66316      9.13521         0.534863     -0.623078     -0.207910
O	     -7.78694      4.69716     14.78620         0.428032      0.409287      1.033254
O	    -11.31560      6.36980      3.49316         0.923803     -2.378129     -0.513604
O	    -12.68450      6.17860      9.11357         0.238290     -0.793073      1.115595
O	    -14.08610      6.23190     14.92250        -0.044019     -0.206132     -0.260985
O	      7.26220      4.81305      3.55624         0.893603     -0.761267     -0.462078
O	      5.97068      4.58333      9.21828        -0.087433     -0.296294      0.775934
O	      4.70598      4.65017     14.99560        -0.085725     -0.506538     -1.466759
O	      0.98090      6.08021      3.38987         0.666938      0.978199      1.020128
O	     -0.17987      6.06796      9.25621         0.044200      0.097332     -0.203169
O	     -1.53020      6.13985     14.94330        -0.052374      0.813981      0.169840
O	     -4.97319      7.77193      3.54144        -0.344294     -0.308219     -0.314897
O	     -6.39480      7.65068      9.23456         0.140162      1.721127     -0.965502
O	     -7.81810      7.74109     14.97520        -0.035896     -0.308658     -1.476324
