250
Lattice="-9.806289205 0.0 9.806289205 0.0 9.806289205 9.806289205 -9.806289205 9.806289205 0.0" Properties=species:S:1:pos:R:3:force:R:3 Config_type=OUTCAR Weight=1.0 Energy=-793.153395 Virial="22.7437 0.83456 -0.09435 0.83456 17.62401 -0.82187 -0.09435 -0.82187 24.28297" pbc="T T T"
Li      -0.05572000       9.78544000       9.80001000       0.54908600      -0.11643300      -0.08144900
Li      -1.97143000       2.00183000       0.04746000      -0.60068900       0.01184500      -0.15597700
Li     -13.80445000      13.70835000      19.41908000      -0.01475200       0.21159600       0.34742100
Li      -6.15427000       6.00394000       0.16576000       0.87291500      -0.20929200      -0.64931600
Li     -17.58923000       7.90531000       9.83484000      -0.27220400       0.09908200      -0.14029300
Li      -9.82109000      11.80795000       2.03849000       0.05672900      -0.08604900      -0.38186400
Li      -2.17846000       3.91236000       1.95913000       0.43996700       0.39888000      -0.04364800
Li      -4.03817000       5.83600000       1.98684000       0.44387500       0.30941000      -0.14429700
Li     -15.52001000       8.00313000      11.70812000      -0.84614100      -0.15628000       0.08415500
Li     -17.60666000       9.91623000      11.82290000       0.04430400      -0.47905500      -0.06038900
Li      -9.78906000       3.80571000      13.56848000       0.53341400       0.36840000       0.70013900
Li      -1.84875000       5.87163000       4.13998000      -0.19265700       0.03134900      -0.52724400
Li     -13.69123000       7.74016000      13.56964000       0.06372800       0.07911100       0.45299000
Li     -15.47845000       9.65471000      13.74469000      -0.48481300       0.14186300       0.09710200
Li      -7.91236000      11.55653000       3.95433000       0.17800100       0.68706200      -0.38507700
Li      -0.11984000       5.80435000       5.91969000       0.65430100      -0.01962300      -0.21519300
Li      -1.93396000       7.87688000       6.03140000      -0.09701000      -0.36554900      -0.19131800
Li      -3.87571000       9.71136000       5.98439000      -0.10317300      -0.10977300      -0.63336900
Li     -15.60446000      11.65748000      15.61235000       0.02538600      -0.02467700       0.07052400
Li     -17.55500000      13.57099000      15.62770000      -0.39625600       0.61311100       0.08498700
Li     -19.44328000      17.67691000      17.65026000      -0.05767000      -1.48080700       0.39100000
Li      -1.95149000       9.65445000       7.95439000      -0.01788900       0.00839000      -0.18120400
Li      -4.12474000      11.53465000       7.98008000       1.17538500       0.21262700      -0.80656200
Li     -15.58968000      13.68058000      17.56098000      -0.49179700       0.19471700       0.23248900
Li      -7.82566000      15.61488000       7.92613000       0.06465300       0.33820000      -0.16406800
Li     -11.48516000       9.82580000       1.79732000      -0.66755800       0.07010400       0.88727800
Li      -4.13127000      12.00862000      11.65985000       0.29426500      -0.55082800       0.35094600
Li      -5.84505000       4.06728000       2.05409000      -0.60802100      -0.29004800      -0.45995600
Li      -7.66663000       5.90975000       1.85957000      -0.74991200       0.25853400       0.42764400
Li      -9.80407000       7.88357000       1.92406000       0.39608200      -0.37594200      -0.11598800
Li      -1.91656000       2.04420000       3.73021000      -0.09903100      -0.08225600       0.51703800
Li      -3.92381000       4.03045000       3.96283000      -0.20073500       0.00466300       0.10781900
Li      -5.88326000       5.93823000       3.87113000      -0.04668000      -0.02316800       0.20589600
Li      -8.09072000       7.80077000       3.83473000       1.78867300      -0.09413100       0.00732600
Li      -9.89052000       9.71466000       3.97471000       0.96766900       0.12216900      -0.25053300
Li     -11.76874000      13.82057000       6.04434000       0.15063900      -0.27447200      -0.36133900
Li      -3.89517000       5.89820000       5.94473000       0.29304500      -0.20617700       0.06551700
Li      -6.01120000       7.84114000       5.99148000       0.65153500      -0.07197800      -0.33259000
Li      -7.85085000       9.91268000       5.61148000       0.06682700      -0.57659200       1.18252900
Li      -9.79338000      11.85909000       5.80370000       0.04495300      -0.03555200       0.19290000
Li     -11.52120000      15.75018000       7.99933000      -1.35816700       0.07596500      -0.18274600
Li      -3.87376000       7.77854000       7.90924000       0.05049400       0.08242400      -0.00099300
Li      -5.98181000       9.75238000       7.93629000       0.17476300      -0.28124600      -0.34194000
Li      -7.78753000      11.72641000       7.99029000      -0.27443600       0.26523900      -0.57097400
Li      -9.91249000      13.84936000       7.94789000       0.47122500      -0.55077700      -0.14303200
Li     -11.70663000      17.62485000       9.94240000      -0.13087800      -0.06333100      -0.49161500
Li      -4.02368000       9.77463000       9.88566000       0.24271000       0.46310100       0.10665600
Li      -5.94792000      11.78152000       9.79147000      -0.15591200       0.10560500       0.20529400
Li      -7.86661000      13.69610000       9.94686000      -0.21377900       0.08052600      -0.34336900
Li      -9.80362000      15.75672000       9.77388000       0.17786900      -0.10825600       0.59721500
Li      -3.99331000       9.85098000      13.67028000       0.14202200       0.06378400      -0.15669300
Li      -6.04384000       2.13298000       4.04568000       0.19305900      -0.13624400      -0.72911800
Li      -7.92235000       4.01543000       4.06614000       0.06551900       0.02121900      -0.42606000
Li      -9.78112000      15.65848000      13.71039000       0.23038100      -0.03789500      -0.30311600
Li     -11.66185000      17.49270000      13.65231000      -0.10663200       0.41563100       0.05406600
Li     -13.64851000      11.75341000       5.89342000      -0.30791700       0.21473200      -0.44164100
Li      -5.80357000       3.79518000       5.92787000      -0.25926200       0.39310000       0.01757300
Li      -7.42407000       5.87735000       5.95444000      -0.87836700      -0.10004200      -0.37218100
Li      -9.76137000       7.76965000       5.91180000       0.00451900       0.07000600      -0.06521500
Li     -11.69971000       9.88937000       5.72318000      -0.28531600      -0.13432700      -0.15134500
Li      -3.91047000       3.93570000       7.79827000       0.00264400       0.40364500       0.35740600
Li      -5.80493000       6.05907000       7.96343000       0.29214700      -0.53420500      -0.20319500
Li      -7.87874000       7.86145000       7.93479000       0.23368500      -0.15231600      -0.50112200
Li      -9.81758000       9.78387000       7.63322000      -0.09481900       0.14527700       0.13346700
Li     -11.86274000      11.71764000       7.66193000       0.51810200       0.34918800       0.73091000
Li      -4.02547000       6.01826000       9.81018000       0.61655300      -0.40443800       0.06224700
Li      -5.92354000       7.79571000      10.09131000       0.11883600       0.57808300      -0.50747500
Li      -7.88345000       9.83539000       9.78560000      -0.02471200       0.01090200       0.11818100
Li      -9.87375000      11.62617000       9.68566000       0.20851700       0.42241600      -0.01085100
Li     -11.63728000      13.97186000       9.80038000      -0.54927200      -1.43642100       0.31312800
Li     -13.65171000      17.71770000      11.83240000      -0.04833200       0.21758700      -0.42330100
Li      -5.92700000       9.99857000      11.83480000       0.01204500      -0.12630400      -0.01383800
Li      -8.10188000      11.88482000      11.86770000       0.78103700      -0.09415200      -0.36635300
Li      -9.84489000      13.74180000      11.76697000      -0.28466600       0.15792000      -0.25417200
Li     -11.87451000      15.69525000      11.80510000       0.65474900      -0.25653100      -0.57718500
Li      -5.99382000       9.75732000      15.57395000       0.08333800      -0.03389900       0.16268300
Li      -7.96342000      11.70380000      15.80393000      -0.10952200       0.27065700      -0.14923500
Li      -9.96211000      13.65849000      15.65347000       1.10368500      -0.02191100       0.38929100
Li     -11.73210000       5.85106000       6.03190000       0.19433300       0.02805600      -0.19434900
Li     -13.51561000       7.87903000       5.88593000      -0.86052400      -0.27092300      -0.43874700
Li      -5.90180000       1.90418000       7.73762000      -0.11107000       0.11818800       0.12737800
Li      -7.67803000       4.04337000       7.87858000      -0.24075100      -0.26231700      -1.14378400
Li      -9.81580000       5.87459000       7.99186000       0.22460900      -0.10304500      -0.44496300
Li     -12.00106000       7.79625000       7.76832000       0.75470000       0.00227500       0.13718300
Li     -13.71702000       9.87909000       7.73507000      -0.29329600      -0.08122100       0.10670700
Li     -15.71208000      13.68870000       9.86799000       0.14118100       0.22223600      -0.25370900
Li      -7.69141000       5.92553000       9.90336000      -0.39274900      -0.25696300      -0.10947000
Li      -9.82427000       7.86797000       9.73054000      -0.27267800      -0.14408600       0.03716800
Li     -11.70576000       9.71600000       9.58974000      -0.25919400       0.25444200       0.24063300
Li     -13.84728000      11.89135000       9.76196000       0.50213500      -0.22722300       0.14614400
Li      -5.85108000       5.99381000      11.80956000      -0.12795400      -0.34428400       0.04216000
Li      -7.97898000       7.97201000      11.73230000       0.32281700      -0.29622900       0.20856000
Li      -9.88272000       9.64178000      11.69301000       0.14453200       0.78197700       0.04787700
Li     -11.79090000      11.81278000      11.67408000       0.21593100      -0.59775300      -0.15623900
Li     -13.78769000      13.80988000      11.87119000       0.39034700      -0.30828200      -0.32522700
Li      -5.94124000       7.87192000      13.51324000       0.04545500       0.05178400       1.14237000
Li      -7.93885000       9.93893000      13.66971000       0.26506600      -0.22881300       0.36491300
Li      -9.83315000      11.89230000      13.51609000      -0.33484800      -0.49886000       0.49903400
Li     -11.60532000      13.83220000      13.90468000      -0.94507600      -0.62723000      -1.33675000
Li     -13.62747000      15.63233000      13.68657000      -0.16939900       0.13137200       0.22597000
Li     -17.57207000       9.79907000       7.85244000      -0.18872900      -0.15364100      -0.10557000
Li     -10.00916000      11.55121000      17.69502000       0.82950900       0.45238100       0.05791800
Li     -11.66363000      13.63798000      17.60442000      -0.14874400       0.06356000       0.29228100
Li     -13.80457000       5.85000000       7.98847000       0.05780900      -0.16550600      -0.18086400
Li     -15.63895000      17.52177000      17.48500000      -0.18294100       0.18847500       0.65828300
Li      -7.89385000       2.01775000       9.77201000      -0.07672400      -0.09693000      -0.27140800
Li      -9.76026000       3.96336000       9.85476000      -0.18237700      -0.13683500      -0.26886300
Li     -11.74883000       5.74142000       9.76620000      -0.06958500       1.30862200       0.42508400
Li     -13.59053000       8.02117000       9.68847000      -0.49812100      -0.44601400       0.46603900
Li     -15.80300000       9.95122000       9.88580000       0.31858300      -0.44782400      -0.19452300
Li      -8.00527000       3.86897000      11.73483000       0.36091100       0.15924700       0.24670500
Li     -10.01151000       5.84609000      11.89553000       0.39842600      -0.13120300      -0.32824800
Li     -11.62089000       7.78579000      11.83898000      -1.02012700       0.10117200      -0.16370300
Li     -13.59967000       9.84638000      11.77484000      -0.05951400      -0.23152500      -0.19878900
Li     -15.78016000      11.84042000      11.67862000       0.21388500      -0.20641300       0.52411900
Li     -17.57685000      15.64216000      13.73338000      -0.58019700       0.04778200      -0.55804700
Li      -9.74905000       7.95070000      13.66737000      -0.16751300      -0.49731200       0.37260100
Li     -11.78445000       9.87242000      13.66175000       0.26596100      -0.31430700       0.42719600
Li     -13.62974000      11.69314000      13.66503000      -0.01177800       0.19861300       0.20784700
Li     -15.73926000      13.74439000      13.71611000       0.06500200      -0.31045000      -0.04594100
Li      -7.86475000       7.82816000      15.65045000       0.10739200      -0.22307300       0.44110200
Li      -9.78892000       9.66104000      15.60313000      -0.15569800       0.24674800       0.59629000
Li     -11.66688000      11.65000000      15.87781000      -0.34424700      -0.15291100      -0.94838700
Li     -13.62815000      13.56733000      15.78711000      -0.00861700       0.12292300      -0.58103400
Li     -15.64667000      15.60438000      15.52628000      -0.09295200       0.27378500       0.33770500
H       -1.88264000       2.03794000       1.91434000      -0.31317200      -0.02981800      -0.02349100
H       -4.13377000       3.99646000       1.98018000       0.64610700      -0.11022800      -0.13624800
H       -5.82675000       5.93700000       2.06134000      -0.21523700       0.05480900      -0.50381400
H       -7.76849000       7.85847000       1.88110000      -0.08241900       0.12902900       0.10718300
H       -9.54636000       9.73543000       2.09084000      -0.72972100       0.18945900      -0.41918000
H       -1.53439000       4.01096000       4.08240000      -1.63929600      -0.21513200      -0.14416800
H       -4.05357000       5.89405000       3.93849000       0.47167400      -0.02612900       0.00962900
H       -5.98117000       7.72901000       3.97593000       0.38292800       0.42660600      -0.16531600
H       -7.90946000       9.75169000       3.97790000       0.05074000       0.00103200      -0.56695000
H       -9.83056000      11.74523000       3.86372000       0.15108900      -0.10075300       0.07474800
H       -2.00887000       5.86575000       5.99139000       0.27022600      -0.07326600      -0.01030600
H       -3.80942000       7.56340000       6.10527000      -0.11530800       0.82523800      -0.34653300
H       -5.96523000       9.57768000       5.98172000       0.19069100       0.70432100      -0.26092200
H       -7.94210000      11.82336000       5.82437000       0.41609800      -0.45545500      -0.00706500
H       -9.72559000      13.65387000       5.86628000      -0.07709900       0.36755900       0.27938500
H       -1.88239000       7.74818000       8.12094000      -0.17755600       0.27183500      -0.32929400
H       -3.74444000       9.65286000       7.60842000      -0.36835000       0.21949300       1.18918800
H       -5.72962000      11.63082000       7.87355000      -1.00477900       0.09495000      -0.10371200
H       -7.63588000      13.86637000       8.07515000      -0.45151500      -0.59314800      -0.60362000
H       -9.87012000      15.81249000       8.01234000       0.65392300      -0.52460000      -0.35441800
H       -1.89365000       9.91730000       9.88326000      -0.11178600      -0.23210300      -0.37898800
H       -3.96639000      11.76107000       9.65385000      -0.00414300       0.04336400       0.65918300
H       -6.06803000      13.81216000       9.64735000       0.55666400      -0.21551600       0.45536800
H       -7.98127000      15.69287000       9.88408000       0.29749300       0.10942300      -0.26846500
H       -9.80450000      17.62294000       9.71438000       0.02739100       0.16724200       0.47489600
H       -4.07491000       2.26040000       3.77368000       0.43478400      -0.62645800       0.23084600
H       -5.87390000       4.09872000       3.73936000      -0.21732300      -0.43251600       0.80248600
H       -7.78521000       5.83942000       3.56307000      -0.20215600       0.12619600       0.93846800
H       -9.62880000       7.77080000       3.80230000      -1.47330500      -0.02531200       0.17650700
H      -11.44773000       9.81920000       3.82156000      -1.33415300       0.02268700      -0.10237700
H       -4.07253000       3.82443000       5.91684000       0.76967100       0.05530600      -0.08747700
H       -5.53191000       5.68818000       5.87218000      -1.20554400       0.28918400       0.10787100
H       -7.75408000       7.77674000       5.73280000      -0.38593300       0.04978300       0.30526600
H       -9.99876000       9.72094000       5.78067000       0.79386100       0.05302800       0.14605000
H      -11.54150000      11.87136000       5.85012000      -0.89952900      -0.13881900      -0.08674300
H       -3.74303000       5.78391000       7.94452000      -0.45668100       0.46159600      -0.05717400
H       -5.76781000       7.87301000       7.85791000      -0.34347500      -0.07876200       0.15356400
H       -7.86216000       9.66175000       7.73535000      -0.11550600       0.36625500       0.28115700
H       -9.71397000      11.81224000       7.69759000      -0.08371400      -0.19843900       0.25472100
H      -11.82970000      13.88269000       8.01971000       0.32506400      -0.34774800      -0.54802300
H       -4.19657000       8.15630000       9.93029000       0.60008900      -1.11573200      -0.10892100
H       -5.94618000       9.76760000       9.82554000      -0.01924000       0.23562400       0.12085400
H       -7.92450000      11.70781000       9.78278000       0.22178300       0.05505000       0.10385600
H       -9.90680000      13.63105000       9.85800000       0.33214600       0.23080500      -0.23176300
H      -12.03774000      15.46418000       9.88786000       0.48107900       1.49127900       0.02600800
H       -3.78832000       9.76769000      11.80357000      -0.25665200       0.39197200      -0.14782600
H       -5.97139000      11.88412000      11.79457000      -0.03307000       0.00749100      -0.18907400
H       -8.02557000      14.00433000      11.76613000       0.31080500      -0.91425700       0.07489600
H       -9.89084000      15.57139000      11.64255000      -0.09416700       0.39364800       0.21614900
H      -11.68339000      17.69711000      11.67099000      -0.07171200      -0.09544900       0.41992600
H       -5.96582000       1.93906000       5.71024000       0.19138200      -0.03947200       0.78485800
H       -7.97071000       3.80682000       5.86469000       0.45695500       0.31607300       0.13461700
H       -9.51136000       5.95542000       5.75089000      -0.61747400      -0.28615200       0.28423800
H      -11.76805000       7.91306000       5.81649000       0.20815700      -0.37955400      -0.03851200
H      -13.71055000       9.71985000       5.70190000       0.03540000       0.35773100       0.28716600
H       -5.70472000       3.96169000       7.93467000      -0.59926200      -0.04693100      -0.20753700
H       -7.66341000       5.98047000       7.68751000      -0.15315000      -0.10304600       0.55812800
H      -10.19253000       7.85143000       7.88745000       0.95796200      -0.03417900      -0.20251800
H      -11.75226000       9.93413000       7.47927000      -0.35088900      -0.38205700       0.66006200
H      -13.91197000      12.00125000       7.93552000       0.50736400      -0.91159400      -0.50721800
H       -5.74887000       5.96888000      10.01184000      -0.50651800      -0.12438400      -0.35733200
H       -7.74915000       7.81085000       9.70930000      -0.36956300       0.09809400       0.49921400
H      -10.00317000       9.80165000       9.86371000       0.90835400      -0.43929800      -0.24390000
H      -11.53505000      11.42740000       9.65620000      -0.83068400       0.65813500      -0.02481800
H      -13.67617000      13.81047000       9.66658000      -0.34613200      -0.17311000       0.59137900
H       -5.91378000       7.95725000      11.89870000      -0.17882800      -0.06738100      -0.71107200
H       -7.81411000      10.00314000      11.78563000      -0.28112300      -0.52236800      -0.10500000
H       -9.80743000      11.73310000      11.49268000      -0.15227900       0.04457200       0.74518700
H      -11.85071000      13.45660000      11.80133000       0.09383000       0.99909300      -0.11588800
H      -13.57093000      15.89183000      11.80749000      -0.73950100      -0.42664100      -0.04115500
H       -5.91767000      10.03062000      13.78470000       0.01532300      -0.38583700      -0.36802000
H       -8.06141000      11.71980000      13.85855000       0.32345000       0.45455100      -0.41910400
H       -9.97006000      13.68378000      13.73066000       0.80609100       0.16899200      -0.08524900
H      -11.78738000      15.48135000      13.50792000       0.19798800       0.74549500       0.64781100
H      -13.77879000      17.66874000      13.51436000       0.20244000      -0.05663300       0.81998800
H       -7.75901000       1.91283000       7.83532000      -0.13923500      -0.04201300       0.08625500
H       -9.70339000       3.72834000       7.82351000      -0.35400400       0.47928500       0.03251500
H      -11.67683000       5.87937000       8.01790000      -0.21609700      -0.14230000      -0.66889900
H      -13.83236000       7.64785000       7.72436000       0.41899800       0.49494700       0.24215100
H      -15.70132000       9.63361000       7.65990000       0.24875200       0.52081500       0.25737100
H       -7.85226000       3.85635000       9.39759000       0.00620600       0.16173900       1.76640800
H       -9.65296000       5.78848000       9.81381000      -0.19668000       0.34842700       0.06846300
H      -11.71858000       7.87923000       9.68541000      -0.18499300      -0.13941600       0.10731500
H      -13.61040000       9.88511000       9.86422000      -0.24262700      -0.12470500      -0.46267700
H      -15.79271000      11.76307000       9.78285000       0.17596800       0.16295100       0.04850400
H       -7.75524000       5.69405000      11.76154000      -0.16041200       0.59395900      -0.17478400
H       -9.98653000       7.79047000      11.77762000       1.08055900       0.04779400      -0.09702900
H      -11.57880000       9.73795000      11.87510000      -0.61508600      -0.06879800      -0.20724000
H      -13.65643000      11.59992000      11.68999000      -0.19058300       0.58820300       0.12719700
H      -15.89948000      13.68199000      11.92817000       0.51473500       0.10233000      -0.60286000
H       -7.86632000       7.96041000      13.95505000       0.03893000      -0.06789600      -1.03086000
H       -9.66182000       9.76406000      13.90830000      -0.49377200       0.02535100      -0.75889000
H      -11.63136000      11.68736000      13.69832000      -0.29297300       0.09658300       0.00490100
H      -13.61515000      13.68536000      13.74724000      -0.33313800       0.06616100      -0.01959900
H      -15.76025000      15.77003000      13.54997000       0.37548800      -0.23783500       0.51850700
H       -7.97093000       9.89490000      15.63149000       0.34491200      -0.34926300       0.18704600
H       -9.84798000      11.74039000      15.89681000       0.00959100      -0.21229600      -0.31075000
H      -11.65269000      13.64131000      15.45376000      -0.43787200       0.12645600       1.44885500
H      -13.49626000      15.57570000      15.72685000      -0.45929600       0.12682600      -0.09811500
H      -15.77521000      17.42618000      15.84472000       0.23734800       0.38142400      -0.95418600
H      -10.15890000       2.15690000       9.88644000       1.15969300      -0.41348900      -0.14181000
H      -11.91601000       4.23021000       9.76619000       0.19569300      -1.80376000       0.05075100
H      -13.53081000       5.74401000      10.02357000      -0.51082500       0.30261800      -0.70597800
H      -15.77893000       7.94040000       9.76867000       0.34678300      -0.03091200       0.17137700
H      -17.76312000       9.96233000       9.81535000       0.23801500      -0.25020900       0.00621600
H       -9.89955000       3.96738000      11.88601000       0.08046000      -0.21288200      -0.76546700
H      -11.87879000       5.92330000      11.91176000       0.14155400      -0.18445300      -0.18391000
H      -13.85757000       7.88051000      11.59077000       0.73226800      -0.00767000       0.35653000
H      -15.57674000      10.02218000      11.92220000      -0.19145200      -0.53352000      -0.46336900
H      -17.71016000      11.71257000      11.67715000       0.01000700       0.32555400       0.12265200
H       -9.81509000       5.67166000      13.61679000       0.11805900       0.58304300       0.44493200
H      -11.64662000       7.79961000      13.74972000      -0.17196700       0.03142400       0.05223100
H      -13.66001000       9.69385000      13.83277000      -0.01468500       0.05681800      -0.30992700
H      -15.68704000      11.61640000      13.66836000      -0.00079700       0.23077800       0.25021400
H      -17.77940000      13.80763000      13.54601000       0.50033600      -0.41204500       0.45052500
H       -9.86009000       7.56809000      15.99592000       0.10127200       0.58736600      -0.82325500
H      -11.89273000       9.67076000      15.63340000       0.58185500       0.23267500       0.22622700
H      -13.59389000      11.66364000      15.73072000      -0.32746900      -0.03229600      -0.09787200
H      -15.58224000      13.61961000      15.65277000      -0.19401600       0.07876000      -0.09562800
H      -17.69121000      15.78346000      15.37776000       0.14621200      -0.42449500       0.97590100
H       -9.69708000       9.33078000      17.65222000      -0.34458200       2.37361500       0.10333400
H      -11.72147000      11.73893000      17.55604000      -0.29268500      -0.14776700       0.69193700
H      -13.78109000      13.52418000      17.51500000       0.25702300       0.28446700       0.52234100
H      -15.72443000      15.63283000      17.70600000       0.22628600      -0.05040100      -0.10003700
H      -17.39750000      17.66109000      17.68737000      -0.73035500      -0.13027900      -0.03520600
250
Lattice="-9.806289205 0.0 9.806289205 0.0 9.806289205 9.806289205 -9.806289205 9.806289205 0.0" Properties=species:S:1:pos:R:3:force:R:3 Config_type=OUTCAR Weight=1.0 Energy=-792.685112 Virial="23.31496 0.06714 0.32279 0.06714 25.36966 0.08448 0.32279 0.08448 20.60433" pbc="T T T"
Li      -9.97695000      19.55660000       9.95692000      -0.07750800      -0.16077300      -0.45991000
Li      -2.07005000      11.72032000       9.68231000       0.19468500       0.10349400       0.25362900
Li      -4.01604000       4.01314000       0.08181000       0.45089800       0.00605300      -0.10114000
Li      -6.02688000      15.80378000       9.83348000       0.66618800       0.08563500      -0.00561900
Li     -17.68680000      17.72989000      19.54696000      -0.07982200      -0.04676900       0.19805400
Li      -9.84043000       1.96512000      11.53681000      -0.21092700       0.01100900       0.80936200
Li      -1.86271000       3.87320000       2.08570000      -0.09317100       0.07826300      -0.20831100
Li     -13.66064000       5.99714000      11.77412000      -0.21992200      -1.66687000      -0.11124800
Li      -5.82092000       7.71430000       1.95621000      -0.09467400       0.79946100       0.19226900
Li      -8.05273000       9.60373000       1.76478000       0.32561800       0.50692300       0.57242500
Li     -19.51403000      13.74606000      13.79958000      -0.17666000      -0.38679600      -0.07163800
Li     -11.68326000       5.84752000      13.67837000      -0.24453100      -0.06590100       0.34885000
Li     -13.55365000       7.83480000      13.78624000      -1.38814500       0.30627000      -0.02123800
Li     -15.65123000       9.87342000      13.65235000      -0.14060400      -1.07300300       0.10206400
Li      -7.82674000      11.44867000       3.93099000      -0.28476700       1.59077900      -0.37427800
Li      -9.82207000      15.63662000       5.94623000       0.50711000      -0.18427500      -0.15664200
Li     -11.74525000       7.82626000      15.49312000      -0.09057300      -0.00349300       1.02646000
Li      -4.04570000       9.82931000       5.90174000       0.10623100      -0.10193400       0.42073200
Li      -5.93454000      11.73747000       5.87765000      -0.01854500      -0.05612800       0.35805700
Li     -17.55336000      13.78889000      15.59102000      -0.24706800      -0.59834000       0.25974700
Li      -0.12284000       7.89272000       7.87510000       0.26062600      -0.12555500       0.00101700
Li     -11.65339000       9.76107000      17.40605000      -0.35089800       0.03573100       1.04885400
Li      -3.97338000      11.57709000       7.99536000       0.07901900       0.26901300      -0.53931200
Li      -5.86058000      13.75957000       8.07480000      -0.08297300      -0.10447600      -1.07061400
Li      -7.83694000      15.83216000       8.01336000      -0.06901900      -0.63196200      -0.63090300
Li      -2.12376000       9.76535000      11.77018000       0.12299600      -0.56553000       0.05818400
Li      -3.97355000      11.71062000      11.72564000       0.08547500      -0.04357000       0.07395000
Li      -5.85923000       3.99040000       2.06720000       0.03099800       0.17562000      -0.31900100
Li      -7.85522000       6.14842000       1.89246000      -0.08745700      -0.60663100       0.39701900
Li      -9.98037000      17.53959000      11.89227000       0.50133800       0.61601400       0.00717000