  -0.60066E-02   0.49479E-03   0.49480E-03   0.49490E-03   0.49492E-03   0.49473E-03   0.49475E-03   0.49498E-03   0.49468E-03   0.49465E-03   0.49462E-03   0.49462E-03   0.49424E-03   0.49468E-03   0.49473E-03   0.49479E-03   0.49498E-03   0.49475E-03   0.49473E-03   0.49492E-03   0.49490E-03   0.49481E-03   0.49462E-03   0.49468E-03   0.49424E-03   0.49468E-03   0.49462E-03   0.49465E-03   0.49473E-03
   0.66030E+00   0.65588E-03   0.65529E-03   0.65526E-03   0.65528E-03   0.65522E-03   0.65523E-03   0.65534E-03   0.65541E-03   0.65539E-03   0.65502E-03   0.65536E-03   0.65412E-03   0.65508E-03   0.65512E-03   0.65588E-03   0.65534E-03   0.65523E-03   0.65522E-03   0.65528E-03   0.65526E-03   0.65529E-03   0.65536E-03   0.65508E-03   0.65412E-03   0.65541E-03   0.65502E-03   0.65539E-03   0.65512E-03
   0.13266E+01   0.84135E-03   0.83939E-03   0.83870E-03   0.83870E-03   0.83942E-03   0.83941E-03   0.83867E-03   0.84017E-03   0.84018E-03   0.83909E-03   0.84019E-03   0.83734E-03   0.83906E-03   0.83905E-03   0.84135E-03   0.83867E-03   0.83941E-03   0.83942E-03   0.83870E-03   0.83870E-03   0.83939E-03   0.84019E-03   0.83906E-03   0.83734E-03   0.84017E-03   0.83909E-03   0.84018E-03   0.83905E-03
   0.19929E+01   0.19245E-02   0.19168E-02   0.19130E-02   0.19130E-02   0.19168E-02   0.19168E-02   0.19129E-02   0.19192E-02   0.19192E-02   0.19150E-02   0.19192E-02   0.19047E-02   0.19149E-02   0.19149E-02   0.19245E-02   0.19129E-02   0.19168E-02   0.19168E-02   0.19130E-02   0.19130E-02   0.19168E-02   0.19192E-02   0.19149E-02   0.19047E-02   0.19192E-02   0.19150E-02   0.19192E-02   0.19149E-02
   0.26592E+01   0.38326E-03   0.38198E-03   0.38152E-03   0.38161E-03   0.38176E-03   0.38178E-03   0.38179E-03   0.38260E-03   0.38252E-03   0.38158E-03   0.38243E-03   0.38087E-03   0.38174E-03   0.38191E-03   0.38326E-03   0.38179E-03   0.38178E-03   0.38176E-03   0.38161E-03   0.38152E-03   0.38198E-03   0.38243E-03   0.38174E-03   0.38087E-03   0.38260E-03   0.38158E-03   0.38252E-03   0.38191E-03
   0.33255E+01   0.56763E-03   0.56556E-03   0.56492E-03   0.56503E-03   0.56526E-03   0.56529E-03   0.56528E-03   0.56657E-03   0.56646E-03   0.56501E-03   0.56633E-03   0.56387E-03   0.56523E-03   0.56544E-03   0.56763E-03   0.56528E-03   0.56529E-03   0.56526E-03   0.56503E-03   0.56492E-03   0.56556E-03   0.56633E-03   0.56523E-03   0.56387E-03   0.56657E-03   0.56501E-03   0.56646E-03   0.56544E-03
   0.39918E+01   0.77693E-03   0.77314E-03   0.77254E-03   0.77260E-03   0.77305E-03   0.77304E-03   0.77268E-03   0.77498E-03   0.77494E-03   0.77274E-03   0.77489E-03   0.77060E-03   0.77280E-03   0.77290E-03   0.77693E-03   0.77268E-03   0.77304E-03   0.77305E-03   0.77260E-03   0.77254E-03   0.77314E-03   0.77489E-03   0.77280E-03   0.77060E-03   0.77498E-03   0.77274E-03   0.77494E-03   0.77290E-03
   0.46581E+01   0.87936E-03   0.87379E-03   0.87313E-03   0.87318E-03   0.87381E-03   0.87376E-03   0.87316E-03   0.87651E-03   0.87650E-03   0.87340E-03   0.87650E-03   0.87035E-03   0.87336E-03   0.87343E-03   0.87936E-03   0.87316E-03   0.87376E-03   0.87381E-03   0.87318E-03   0.87313E-03   0.87379E-03   0.87650E-03   0.87336E-03   0.87035E-03   0.87651E-03   0.87340E-03   0.87650E-03   0.87343E-03
   0.53244E+01   0.88547E-03   0.87857E-03   0.87775E-03   0.87784E-03   0.87858E-03   0.87848E-03   0.87785E-03   0.88197E-03   0.88192E-03   0.87803E-03   0.88193E-03   0.87439E-03   0.87798E-03   0.87812E-03   0.88547E-03   0.87785E-03   0.87848E-03   0.87858E-03   0.87784E-03   0.87775E-03   0.87857E-03   0.88193E-03   0.87798E-03   0.87439E-03   0.88197E-03   0.87803E-03   0.88192E-03   0.87812E-03
   0.59907E+01   0.91222E-03   0.90468E-03   0.90364E-03   0.90382E-03   0.90455E-03   0.90442E-03   0.90395E-03   0.90843E-03   0.90830E-03   0.90390E-03   0.90825E-03   0.90002E-03   0.90393E-03   0.90424E-03   0.91222E-03   0.90395E-03   0.90442E-03   0.90455E-03   0.90382E-03   0.90364E-03   0.90468E-03   0.90825E-03   0.90393E-03   0.90002E-03   0.90843E-03   0.90390E-03   0.90830E-03   0.90424E-03
   0.66570E+01   0.10445E-02   0.10369E-02   0.10355E-02   0.10358E-02   0.10364E-02   0.10363E-02   0.10362E-02   0.10407E-02   0.10404E-02   0.10357E-02   0.10402E-02   0.10318E-02   0.10360E-02   0.10365E-02   0.10445E-02   0.10362E-02   0.10363E-02   0.10364E-02   0.10358E-02   0.10355E-02   0.10369E-02   0.10402E-02   0.10360E-02   0.10318E-02   0.10407E-02   0.10357E-02   0.10404E-02   0.10365E-02
   0.73233E+01   0.12796E-02   0.12711E-02   0.12697E-02   0.12700E-02   0.12706E-02   0.12705E-02   0.12705E-02   0.12753E-02   0.12751E-02   0.12699E-02   0.12749E-02   0.12655E-02   0.12702E-02   0.12708E-02   0.12796E-02   0.12705E-02   0.12705E-02   0.12706E-02   0.12700E-02   0.12697E-02   0.12711E-02   0.12749E-02   0.12702E-02   0.12655E-02   0.12753E-02   0.12699E-02   0.12751E-02   0.12708E-02
   0.79896E+01   0.15123E-02   0.15008E-02   0.14998E-02   0.14999E-02   0.15007E-02   0.15006E-02   0.15000E-02   0.15065E-02   0.15064E-02   0.15000E-02   0.15064E-02   0.14939E-02   0.15000E-02   0.15002E-02   0.15123E-02   0.15000E-02   0.15006E-02   0.15007E-02   0.14999E-02   0.14998E-02   0.15008E-02   0.15064E-02   0.15000E-02   0.14939E-02   0.15065E-02   0.15000E-02   0.15064E-02   0.15002E-02
   0.86559E+01   0.16270E-02   0.16114E-02   0.16106E-02   0.16106E-02   0.16118E-02   0.16117E-02   0.16103E-02   0.16192E-02   0.16192E-02   0.16110E-02   0.16194E-02   0.16029E-02   0.16106E-02   0.16105E-02   0.16270E-02   0.16103E-02   0.16117E-02   0.16118E-02   0.16106E-02   0.16106E-02   0.16114E-02   0.16194E-02   0.16106E-02   0.16029E-02   0.16192E-02   0.16110E-02   0.16192E-02   0.16105E-02
   0.93222E+01   0.16383E-02   0.16202E-02   0.16191E-02   0.16192E-02   0.16206E-02   0.16203E-02   0.16190E-02   0.16293E-02   0.16292E-02   0.16195E-02   0.16294E-02   0.16104E-02   0.16191E-02   0.16192E-02   0.16383E-02   0.16190E-02   0.16203E-02   0.16206E-02   0.16192E-02   0.16191E-02   0.16202E-02   0.16294E-02   0.16191E-02   0.16104E-02   0.16293E-02   0.16195E-02   0.16292E-02   0.16192E-02
   0.99885E+01   0.17053E-02   0.16880E-02   0.16862E-02   0.16867E-02   0.16878E-02   0.16874E-02   0.16870E-02   0.16967E-02   0.16964E-02   0.16865E-02   0.16963E-02   0.16779E-02   0.16865E-02   0.16873E-02   0.17053E-02   0.16870E-02   0.16874E-02   0.16878E-02   0.16867E-02   0.16862E-02   0.16880E-02   0.16963E-02   0.16865E-02   0.16779E-02   0.16967E-02   0.16865E-02   0.16964E-02   0.16873E-02
   0.10655E+02   0.19512E-02   0.19367E-02   0.19348E-02   0.19356E-02   0.19360E-02   0.19356E-02   0.19362E-02   0.19441E-02   0.19435E-02   0.19351E-02   0.19433E-02   0.19274E-02   0.19353E-02   0.19365E-02   0.19512E-02   0.19362E-02   0.19356E-02   0.19360E-02   0.19356E-02   0.19348E-02   0.19367E-02   0.19433E-02   0.19353E-02   0.19274E-02   0.19441E-02   0.19351E-02   0.19435E-02   0.19365E-02
   0.11321E+02   0.22564E-02   0.22427E-02   0.22412E-02   0.22420E-02   0.22421E-02   0.22415E-02   0.22425E-02   0.22497E-02   0.22490E-02   0.22415E-02   0.22489E-02   0.22336E-02   0.22415E-02   0.22429E-02   0.22564E-02   0.22425E-02   0.22415E-02   0.22421E-02   0.22420E-02   0.22412E-02   0.22427E-02   0.22489E-02   0.22415E-02   0.22336E-02   0.22497E-02   0.22415E-02   0.22490E-02   0.22429E-02
   0.11987E+02   0.24051E-02   0.23871E-02   0.23859E-02   0.23865E-02   0.23867E-02   0.23864E-02   0.23867E-02   0.23963E-02   0.23958E-02   0.23861E-02   0.23957E-02   0.23763E-02   0.23861E-02   0.23869E-02   0.24051E-02   0.23867E-02   0.23864E-02   0.23867E-02   0.23865E-02   0.23859E-02   0.23871E-02   0.23957E-02   0.23861E-02   0.23763E-02   0.23963E-02   0.23861E-02   0.23958E-02   0.23869E-02
   0.12654E+02   0.24171E-02   0.23916E-02   0.23910E-02   0.23907E-02   0.23914E-02   0.23918E-02   0.23907E-02   0.24044E-02   0.24045E-02   0.23905E-02   0.24044E-02   0.23781E-02   0.23908E-02   0.23902E-02   0.24171E-02   0.23907E-02   0.23918E-02   0.23914E-02   0.23907E-02   0.23910E-02   0.23916E-02   0.24044E-02   0.23908E-02   0.23781E-02   0.24044E-02   0.23905E-02   0.24045E-02   0.23902E-02
   0.13320E+02   0.25393E-02   0.25108E-02   0.25121E-02   0.25105E-02   0.25111E-02   0.25126E-02   0.25102E-02   0.25248E-02   0.25259E-02   0.25107E-02   0.25258E-02   0.24972E-02   0.25114E-02   0.25090E-02   0.25393E-02   0.25102E-02   0.25126E-02   0.25111E-02   0.25105E-02   0.25121E-02   0.25108E-02   0.25258E-02   0.25114E-02   0.24972E-02   0.25248E-02   0.25107E-02   0.25259E-02   0.25090E-02
   0.13986E+02   0.28749E-02   0.28546E-02   0.28583E-02   0.28557E-02   0.28553E-02   0.28574E-02   0.28553E-02   0.28642E-02   0.28659E-02   0.28567E-02   0.28659E-02   0.28451E-02   0.28577E-02   0.28539E-02   0.28749E-02   0.28553E-02   0.28574E-02   0.28553E-02   0.28557E-02   0.28583E-02   0.28546E-02   0.28659E-02   0.28577E-02   0.28451E-02   0.28642E-02   0.28567E-02   0.28659E-02   0.28539E-02
   0.14653E+02   0.31614E-02   0.31555E-02   0.31603E-02   0.31577E-02   0.31559E-02   0.31580E-02   0.31576E-02   0.31576E-02   0.31593E-02   0.31592E-02   0.31591E-02   0.31514E-02   0.31605E-02   0.31569E-02   0.31614E-02   0.31576E-02   0.31580E-02   0.31559E-02   0.31577E-02   0.31603E-02   0.31555E-02   0.31591E-02   0.31605E-02   0.31514E-02   0.31576E-02   0.31592E-02   0.31593E-02   0.31569E-02
   0.15319E+02   0.31029E-02   0.31073E-02   0.31108E-02   0.31090E-02   0.31068E-02   0.31085E-02   0.31096E-02   0.31041E-02   0.31051E-02   0.31108E-02   0.31046E-02   0.31055E-02   0.31124E-02   0.31101E-02   0.31029E-02   0.31096E-02   0.31085E-02   0.31068E-02   0.31090E-02   0.31108E-02   0.31073E-02   0.31046E-02   0.31124E-02   0.31055E-02   0.31041E-02   0.31108E-02   0.31051E-02   0.31101E-02
   0.15985E+02   0.28011E-02   0.28088E-02   0.28103E-02   0.28091E-02   0.28074E-02   0.28088E-02   0.28104E-02   0.28039E-02   0.28043E-02   0.28110E-02   0.28035E-02   0.28062E-02   0.28130E-02   0.28119E-02   0.28011E-02   0.28104E-02   0.28088E-02   0.28074E-02   0.28091E-02   0.28103E-02   0.28088E-02   0.28035E-02   0.28130E-02   0.28062E-02   0.28039E-02   0.28110E-02   0.28043E-02   0.28119E-02
   0.16652E+02   0.29750E-02   0.29083E-02   0.29086E-02   0.29053E-02   0.29054E-02   0.29092E-02   0.29078E-02   0.29422E-02   0.29439E-02   0.29014E-02   0.29419E-02   0.28799E-02   0.29059E-02   0.29024E-02   0.29750E-02   0.29078E-02   0.29092E-02   0.29054E-02   0.29053E-02   0.29086E-02   0.29083E-02   0.29419E-02   0.29059E-02   0.28799E-02   0.29422E-02   0.29014E-02   0.29439E-02   0.29024E-02
   0.17318E+02   0.43396E-02   0.45867E-02   0.46010E-02   0.45922E-02   0.45811E-02   0.45908E-02   0.45973E-02   0.44523E-02   0.44572E-02   0.46166E-02   0.44530E-02   0.46628E-02   0.46271E-02   0.46167E-02   0.43396E-02   0.45973E-02   0.45908E-02   0.45811E-02   0.45922E-02   0.46010E-02   0.45867E-02   0.44530E-02   0.46271E-02   0.46628E-02   0.44523E-02   0.46166E-02   0.44572E-02   0.46167E-02
   0.17984E+02   0.40462E-02   0.40201E-02   0.40224E-02   0.40336E-02   0.40255E-02   0.40141E-02   0.40280E-02   0.40372E-02   0.40308E-02   0.40267E-02   0.40354E-02   0.40143E-02   0.40147E-02   0.40280E-02   0.40462E-02   0.40280E-02   0.40141E-02   0.40255E-02   0.40336E-02   0.40224E-02   0.40201E-02   0.40354E-02   0.40147E-02   0.40143E-02   0.40372E-02   0.40267E-02   0.40308E-02   0.40280E-02
   0.18650E+02   0.39977E-02   0.39454E-02   0.39345E-02   0.39583E-02   0.39538E-02   0.39310E-02   0.39492E-02   0.39782E-02   0.39641E-02   0.39488E-02   0.39724E-02   0.39221E-02   0.39264E-02   0.39553E-02   0.39977E-02   0.39492E-02   0.39310E-02   0.39538E-02   0.39583E-02   0.39345E-02   0.39454E-02   0.39724E-02   0.39264E-02   0.39221E-02   0.39782E-02   0.39488E-02   0.39641E-02   0.39553E-02
   0.19317E+02   0.43145E-02   0.44546E-02   0.44707E-02   0.44520E-02   0.44432E-02   0.44628E-02   0.44625E-02   0.43740E-02   0.43848E-02   0.44698E-02   0.43759E-02   0.44918E-02   0.44913E-02   0.44699E-02   0.43145E-02   0.44625E-02   0.44628E-02   0.44432E-02   0.44520E-02   0.44707E-02   0.44546E-02   0.43759E-02   0.44913E-02   0.44918E-02   0.43740E-02   0.44698E-02   0.43848E-02   0.44699E-02
   0.19983E+02   0.48721E-02   0.51809E-02   0.52038E-02   0.51892E-02   0.51738E-02   0.51887E-02   0.51960E-02   0.50116E-02   0.50204E-02   0.52216E-02   0.50144E-02   0.52763E-02   0.52371E-02   0.52197E-02   0.48721E-02   0.51960E-02   0.51887E-02   0.51738E-02   0.51892E-02   0.52038E-02   0.51809E-02   0.50144E-02   0.52371E-02   0.52763E-02   0.50116E-02   0.52216E-02   0.50204E-02   0.52197E-02
   0.20649E+02   0.45989E-02   0.48361E-02   0.48514E-02   0.48534E-02   0.48377E-02   0.48358E-02   0.48518E-02   0.47097E-02   0.47089E-02   0.48746E-02   0.47102E-02   0.49120E-02   0.48722E-02   0.48742E-02   0.45989E-02   0.48518E-02   0.48358E-02   0.48377E-02   0.48534E-02   0.48514E-02   0.48361E-02   0.47102E-02   0.48722E-02   0.49120E-02   0.47097E-02   0.48746E-02   0.47089E-02   0.48742E-02
   0.21316E+02   0.45043E-02   0.48190E-02   0.48416E-02   0.48392E-02   0.48194E-02   0.48215E-02   0.48389E-02   0.46504E-02   0.46523E-02   0.48678E-02   0.46521E-02   0.49233E-02   0.48691E-02   0.48656E-02   0.45043E-02   0.48389E-02   0.48215E-02   0.48194E-02   0.48392E-02   0.48416E-02   0.48190E-02   0.46521E-02   0.48691E-02   0.49233E-02   0.46504E-02   0.48678E-02   0.46523E-02   0.48656E-02
   0.21982E+02   0.54207E-02   0.58597E-02   0.58933E-02   0.58951E-02   0.58628E-02   0.58605E-02   0.58923E-02   0.56275E-02   0.56270E-02   0.59296E-02   0.56287E-02   0.60149E-02   0.59258E-02   0.59270E-02   0.54207E-02   0.58923E-02   0.58605E-02   0.58628E-02   0.58951E-02   0.58933E-02   0.58597E-02   0.56287E-02   0.59258E-02   0.60149E-02   0.56275E-02   0.59296E-02   0.56270E-02   0.59270E-02
   0.22648E+02   0.53671E-02   0.56892E-02   0.57235E-02   0.57303E-02   0.56979E-02   0.56905E-02   0.57222E-02   0.55216E-02   0.55186E-02   0.57530E-02   0.55237E-02   0.58121E-02   0.57413E-02   0.57464E-02   0.53671E-02   0.57222E-02   0.56905E-02   0.56979E-02   0.57303E-02   0.57235E-02   0.56892E-02   0.55237E-02   0.57413E-02   0.58121E-02   0.55216E-02   0.57530E-02   0.55186E-02   0.57464E-02
   0.23315E+02   0.62774E-02   0.67149E-02   0.67773E-02   0.67735E-02   0.67233E-02   0.67262E-02   0.67660E-02   0.64866E-02   0.64896E-02   0.68026E-02   0.64926E-02   0.68963E-02   0.67982E-02   0.67879E-02   0.62774E-02   0.67660E-02   0.67262E-02   0.67233E-02   0.67735E-02   0.67773E-02   0.67149E-02   0.64926E-02   0.67982E-02   0.68963E-02   0.64866E-02   0.68026E-02   0.64896E-02   0.67879E-02
   0.23981E+02   0.68767E-02   0.84728E-02   0.85555E-02   0.85733E-02   0.84990E-02   0.84793E-02   0.85493E-02   0.76257E-02   0.76162E-02   0.87230E-02   0.76310E-02   0.90139E-02   0.86899E-02   0.87008E-02   0.68767E-02   0.85493E-02   0.84793E-02   0.84990E-02   0.85733E-02   0.85555E-02   0.84728E-02   0.76310E-02   0.86899E-02   0.90139E-02   0.76257E-02   0.87230E-02   0.76162E-02   0.87008E-02
   0.24647E+02   0.95409E-02   0.10029E-01   0.10130E-01   0.10174E-01   0.10080E-01   0.10033E-01   0.10127E-01   0.97971E-02   0.97733E-02   0.10182E-01   0.98041E-02   0.10293E-01   0.10112E-01   0.10146E-01   0.95409E-02   0.10127E-01   0.10033E-01   0.10080E-01   0.10174E-01   0.10130E-01   0.10029E-01   0.98041E-02   0.10112E-01   0.10293E-01   0.97971E-02   0.10182E-01   0.97733E-02   0.10146E-01
   0.25314E+02   0.68105E-02   0.78531E-02   0.79416E-02   0.79003E-02   0.78373E-02   0.78767E-02   0.79174E-02   0.72893E-02   0.73116E-02   0.79966E-02   0.72962E-02   0.82143E-02   0.80367E-02   0.79871E-02   0.68105E-02   0.79174E-02   0.78767E-02   0.78373E-02   0.79003E-02   0.79416E-02   0.78531E-02   0.72962E-02   0.80367E-02   0.82143E-02   0.72893E-02   0.79966E-02   0.73116E-02   0.79871E-02
   0.25980E+02   0.67916E-02   0.77598E-02   0.77444E-02   0.77445E-02   0.76949E-02   0.76878E-02   0.78157E-02   0.72446E-02   0.72283E-02   0.77939E-02   0.71942E-02   0.80301E-02   0.78470E-02   0.78956E-02   0.67916E-02   0.78157E-02   0.76878E-02   0.76949E-02   0.77445E-02   0.77444E-02   0.77598E-02   0.71942E-02   0.78470E-02   0.80301E-02   0.72446E-02   0.77939E-02   0.72283E-02   0.78956E-02
   0.26646E+02   0.68270E-02   0.74905E-02   0.75563E-02   0.75665E-02   0.74966E-02   0.74965E-02   0.75497E-02   0.71380E-02   0.71410E-02   0.76163E-02   0.71499E-02   0.77231E-02   0.76040E-02   0.76059E-02   0.68270E-02   0.75497E-02   0.74965E-02   0.74966E-02   0.75665E-02   0.75563E-02   0.74905E-02   0.71499E-02   0.76040E-02   0.77231E-02   0.71380E-02   0.76163E-02   0.71410E-02   0.76059E-02
   0.27312E+02   0.60140E-02   0.70206E-02   0.70521E-02   0.70156E-02   0.69726E-02   0.70115E-02   0.70604E-02   0.64685E-02   0.64866E-02   0.70991E-02   0.64587E-02   0.73298E-02   0.71623E-02   0.71374E-02   0.60140E-02   0.70604E-02   0.70115E-02   0.69726E-02   0.70156E-02   0.70521E-02   0.70206E-02   0.64587E-02   0.71623E-02   0.73298E-02   0.64685E-02   0.70991E-02   0.64866E-02   0.71374E-02
   0.27979E+02   0.58382E-02   0.66012E-02   0.65631E-02   0.66233E-02   0.66036E-02   0.65441E-02   0.66206E-02   0.62016E-02   0.61644E-02   0.66661E-02   0.61757E-02   0.68472E-02   0.66241E-02   0.67111E-02   0.58382E-02   0.66206E-02   0.65441E-02   0.66036E-02   0.66233E-02   0.65631E-02   0.66012E-02   0.61757E-02   0.66241E-02   0.68472E-02   0.62016E-02   0.66661E-02   0.61644E-02   0.67111E-02
   0.28645E+02   0.56458E-02   0.62546E-02   0.62634E-02   0.62823E-02   0.62647E-02   0.62468E-02   0.62706E-02   0.59291E-02   0.59200E-02   0.63310E-02   0.59283E-02   0.64766E-02   0.63096E-02   0.63300E-02   0.56458E-02   0.62706E-02   0.62468E-02   0.62647E-02   0.62823E-02   0.62634E-02   0.62546E-02   0.59283E-02   0.63096E-02   0.64766E-02   0.59291E-02   0.63310E-02   0.59200E-02   0.63300E-02
   0.29311E+02   0.53236E-02   0.61558E-02   0.62135E-02   0.61975E-02   0.61735E-02   0.61896E-02   0.61787E-02   0.57029E-02   0.57163E-02   0.62877E-02   0.57227E-02   0.64681E-02   0.62833E-02   0.62477E-02   0.53236E-02   0.61787E-02   0.61896E-02   0.61735E-02   0.61975E-02   0.62135E-02   0.61558E-02   0.57227E-02   0.62833E-02   0.64681E-02   0.57029E-02   0.62877E-02   0.57163E-02   0.62477E-02
   0.29978E+02   0.56134E-02   0.57906E-02   0.58495E-02   0.58412E-02   0.58223E-02   0.58319E-02   0.58090E-02   0.56963E-02   0.57070E-02   0.58658E-02   0.57221E-02   0.59060E-02   0.58459E-02   0.58114E-02   0.56134E-02   0.58090E-02   0.58319E-02   0.58223E-02   0.58412E-02   0.58495E-02   0.57906E-02   0.57221E-02   0.58459E-02   0.59060E-02   0.56963E-02   0.58658E-02   0.57070E-02   0.58114E-02
   0.30644E+02   0.66995E-02   0.65636E-02   0.66629E-02   0.66444E-02   0.66116E-02   0.66302E-02   0.65977E-02   0.66451E-02   0.66636E-02   0.66368E-02   0.66846E-02   0.66132E-02   0.66108E-02   0.65519E-02   0.66995E-02   0.65977E-02   0.66302E-02   0.66116E-02   0.66444E-02   0.66629E-02   0.65636E-02   0.66846E-02   0.66108E-02   0.66132E-02   0.66451E-02   0.66368E-02   0.66636E-02   0.65519E-02
   0.31310E+02   0.62365E-02   0.55769E-02   0.55716E-02   0.55826E-02   0.55806E-02   0.55690E-02   0.55809E-02   0.59397E-02   0.59318E-02   0.54945E-02   0.59354E-02   0.54086E-02   0.54851E-02   0.54996E-02   0.62365E-02   0.55809E-02   0.55690E-02   0.55806E-02   0.55826E-02   0.55716E-02   0.55769E-02   0.59354E-02   0.54851E-02   0.54086E-02   0.59397E-02   0.54945E-02   0.59318E-02   0.54996E-02
   0.31977E+02   0.65791E-02   0.58325E-02   0.57901E-02   0.58307E-02   0.58267E-02   0.57850E-02   0.58382E-02   0.62496E-02   0.62213E-02   0.57140E-02   0.62247E-02   0.56195E-02   0.56924E-02   0.57574E-02   0.65791E-02   0.58382E-02   0.57850E-02   0.58267E-02   0.58307E-02   0.57901E-02   0.58325E-02   0.62247E-02   0.56924E-02   0.56195E-02   0.62496E-02   0.57140E-02   0.62213E-02   0.57574E-02
   0.32643E+02   0.59378E-02   0.56404E-02   0.56501E-02   0.55992E-02   0.55933E-02   0.56426E-02   0.56447E-02   0.57891E-02   0.58140E-02   0.55540E-02   0.57825E-02   0.55578E-02   0.56252E-02   0.55825E-02   0.59378E-02   0.56447E-02   0.56426E-02   0.55933E-02   0.55992E-02   0.56501E-02   0.56404E-02   0.57825E-02   0.56252E-02   0.55578E-02   0.57891E-02   0.55540E-02   0.58140E-02   0.55825E-02
   0.33309E+02   0.60512E-02   0.58932E-02   0.58908E-02   0.58956E-02   0.58866E-02   0.58822E-02   0.59001E-02   0.59791E-02   0.59753E-02   0.58626E-02   0.59741E-02   0.58657E-02   0.58646E-02   0.58756E-02   0.60512E-02   0.59001E-02   0.58822E-02   0.58866E-02   0.58956E-02   0.58908E-02   0.58932E-02   0.59741E-02   0.58646E-02   0.58657E-02   0.59791E-02   0.58626E-02   0.59753E-02   0.58756E-02
   0.33975E+02   0.63351E-02   0.62408E-02   0.62599E-02   0.62390E-02   0.62281E-02   0.62487E-02   0.62500E-02   0.62868E-02   0.62977E-02   0.62183E-02   0.62896E-02   0.62437E-02   0.62425E-02   0.62201E-02   0.63351E-02   0.62500E-02   0.62487E-02   0.62281E-02   0.62390E-02   0.62599E-02   0.62408E-02   0.62896E-02   0.62425E-02   0.62437E-02   0.62868E-02   0.62183E-02   0.62977E-02   0.62201E-02
   0.34642E+02   0.66320E-02   0.64169E-02   0.64452E-02   0.64066E-02   0.63954E-02   0.64329E-02   0.64278E-02   0.65265E-02   0.65463E-02   0.63726E-02   0.65299E-02   0.63888E-02   0.64160E-02   0.63738E-02   0.66320E-02   0.64278E-02   0.64329E-02   0.63954E-02   0.64066E-02   0.64452E-02   0.64169E-02   0.65299E-02   0.64160E-02   0.63888E-02   0.65265E-02   0.63726E-02   0.65463E-02   0.63738E-02
   0.35308E+02   0.68217E-02   0.62973E-02   0.63089E-02   0.63226E-02   0.63107E-02   0.62979E-02   0.63097E-02   0.65905E-02   0.65829E-02   0.62483E-02   0.65908E-02   0.61859E-02   0.62291E-02   0.62385E-02   0.68217E-02   0.63097E-02   0.62979E-02   0.63107E-02   0.63226E-02   0.63089E-02   0.62973E-02   0.65908E-02   0.62291E-02   0.61859E-02   0.65905E-02   0.62483E-02   0.65829E-02   0.62385E-02
   0.35974E+02   0.66303E-02   0.60027E-02   0.60138E-02   0.60520E-02   0.60383E-02   0.60034E-02   0.60159E-02   0.63588E-02   0.63408E-02   0.59675E-02   0.63632E-02   0.58669E-02   0.59139E-02   0.59423E-02   0.66303E-02   0.60159E-02   0.60034E-02   0.60383E-02   0.60520E-02   0.60138E-02   0.60027E-02   0.63632E-02   0.59139E-02   0.58669E-02   0.63588E-02   0.59675E-02   0.63408E-02   0.59423E-02
   0.36641E+02   0.61455E-02   0.57401E-02   0.57680E-02   0.57636E-02   0.57483E-02   0.57559E-02   0.57533E-02   0.59637E-02   0.59694E-02   0.57094E-02   0.59721E-02   0.56616E-02   0.57057E-02   0.56898E-02   0.61455E-02   0.57533E-02   0.57559E-02   0.57483E-02   0.57636E-02   0.57680E-02   0.57401E-02   0.59721E-02   0.57057E-02   0.56616E-02   0.59637E-02   0.57094E-02   0.59694E-02   0.56898E-02
   0.37307E+02   0.58782E-02   0.56623E-02   0.56822E-02   0.56615E-02   0.56451E-02   0.56679E-02   0.56765E-02   0.57778E-02   0.57894E-02   0.56228E-02   0.57778E-02   0.56241E-02   0.56503E-02   0.56285E-02   0.58782E-02   0.56765E-02   0.56679E-02   0.56451E-02   0.56615E-02   0.56822E-02   0.56623E-02   0.57778E-02   0.56503E-02   0.56241E-02   0.57778E-02   0.56228E-02   0.57894E-02   0.56285E-02
   0.37973E+02   0.59518E-02   0.57695E-02   0.57723E-02   0.57669E-02   0.57500E-02   0.57565E-02   0.57852E-02   0.58705E-02   0.58709E-02   0.57233E-02   0.58611E-02   0.57345E-02   0.57426E-02   0.57460E-02   0.59518E-02   0.57852E-02   0.57565E-02   0.57500E-02   0.57669E-02   0.57723E-02   0.57695E-02   0.58611E-02   0.57426E-02   0.57345E-02   0.58705E-02   0.57233E-02   0.58709E-02   0.57460E-02
   0.38640E+02   0.62108E-02   0.60024E-02   0.60024E-02   0.60056E-02   0.59888E-02   0.59847E-02   0.60196E-02   0.61203E-02   0.61151E-02   0.59566E-02   0.61097E-02   0.59646E-02   0.59651E-02   0.59796E-02   0.62108E-02   0.60196E-02   0.59847E-02   0.59888E-02   0.60056E-02   0.60024E-02   0.60024E-02   0.61097E-02   0.59651E-02   0.59646E-02   0.61203E-02   0.59566E-02   0.61151E-02   0.59796E-02
   0.39306E+02   0.65548E-02   0.63256E-02   0.63330E-02   0.63288E-02   0.63113E-02   0.63126E-02   0.63447E-02   0.64533E-02   0.64523E-02   0.62776E-02   0.64453E-02   0.62899E-02   0.62913E-02   0.62978E-02   0.65548E-02   0.63447E-02   0.63126E-02   0.63113E-02   0.63288E-02   0.63330E-02   0.63256E-02   0.64453E-02   0.62913E-02   0.62899E-02   0.64533E-02   0.62776E-02   0.64523E-02   0.62978E-02
   0.39972E+02   0.69684E-02   0.67394E-02   0.67537E-02   0.67341E-02   0.67141E-02   0.67297E-02   0.67608E-02   0.68630E-02   0.68699E-02   0.66811E-02   0.68555E-02   0.67081E-02   0.67134E-02   0.67058E-02   0.69684E-02   0.67608E-02   0.67297E-02   0.67141E-02   0.67341E-02   0.67537E-02   0.67394E-02   0.68555E-02   0.67134E-02   0.67081E-02   0.68630E-02   0.66811E-02   0.68699E-02   0.67058E-02
   0.40639E+02   0.71768E-02   0.69465E-02   0.69638E-02   0.69367E-02   0.69137E-02   0.69362E-02   0.69703E-02   0.70691E-02   0.70795E-02   0.68804E-02   0.70610E-02   0.69173E-02   0.69235E-02   0.69101E-02   0.71768E-02   0.69703E-02   0.69362E-02   0.69137E-02   0.69367E-02   0.69638E-02   0.69465E-02   0.70610E-02   0.69235E-02   0.69173E-02   0.70691E-02   0.68804E-02   0.70795E-02   0.69101E-02
   0.41305E+02   0.70355E-02   0.67740E-02   0.67927E-02   0.67793E-02   0.67542E-02   0.67630E-02   0.67999E-02   0.69179E-02   0.69220E-02   0.67183E-02   0.69127E-02   0.67427E-02   0.67422E-02   0.67397E-02   0.70355E-02   0.67999E-02   0.67630E-02   0.67542E-02   0.67793E-02   0.67927E-02   0.67740E-02   0.69127E-02   0.67422E-02   0.67427E-02   0.69179E-02   0.67183E-02   0.69220E-02   0.67397E-02
   0.41971E+02   0.68887E-02   0.65767E-02   0.65960E-02   0.66130E-02   0.65863E-02   0.65661E-02   0.66039E-02   0.67565E-02   0.67459E-02   0.65479E-02   0.67561E-02   0.65437E-02   0.65285E-02   0.65491E-02   0.68887E-02   0.66039E-02   0.65661E-02   0.65863E-02   0.66130E-02   0.65960E-02   0.65767E-02   0.67561E-02   0.65285E-02   0.65437E-02   0.67565E-02   0.65479E-02   0.67459E-02   0.65491E-02
   0.42637E+02   0.66926E-02   0.63457E-02   0.63782E-02   0.64175E-02   0.63900E-02   0.63491E-02   0.63735E-02   0.65505E-02   0.65313E-02   0.63565E-02   0.65616E-02   0.63245E-02   0.62951E-02   0.63243E-02   0.66926E-02   0.63735E-02   0.63491E-02   0.63900E-02   0.64175E-02   0.63782E-02   0.63457E-02   0.65616E-02   0.62951E-02   0.63245E-02   0.65505E-02   0.63565E-02   0.65313E-02   0.63243E-02
   0.43304E+02   0.64475E-02   0.61058E-02   0.61598E-02   0.61988E-02   0.61703E-02   0.61308E-02   0.61346E-02   0.63080E-02   0.62923E-02   0.61478E-02   0.63314E-02   0.61080E-02   0.60709E-02   0.60865E-02   0.64475E-02   0.61346E-02   0.61308E-02   0.61703E-02   0.61988E-02   0.61598E-02   0.61058E-02   0.63314E-02   0.60709E-02   0.61080E-02   0.63080E-02   0.61478E-02   0.62923E-02   0.60865E-02
   0.43970E+02   0.62213E-02   0.59141E-02   0.59796E-02   0.60045E-02   0.59734E-02   0.59488E-02   0.59459E-02   0.60945E-02   0.60874E-02   0.59583E-02   0.61202E-02   0.59347E-02   0.58954E-02   0.58946E-02   0.62213E-02   0.59459E-02   0.59488E-02   0.59734E-02   0.60045E-02   0.59796E-02   0.59141E-02   0.61202E-02   0.58954E-02   0.59347E-02   0.60945E-02   0.59583E-02   0.60874E-02   0.58946E-02
   0.44636E+02   0.60479E-02   0.57813E-02   0.58393E-02   0.58489E-02   0.58132E-02   0.58045E-02   0.58188E-02   0.59368E-02   0.59365E-02   0.57964E-02   0.59516E-02   0.58038E-02   0.57656E-02   0.57608E-02   0.60479E-02   0.58188E-02   0.58045E-02   0.58132E-02   0.58489E-02   0.58393E-02   0.57813E-02   0.59516E-02   0.57656E-02   0.58038E-02   0.59368E-02   0.57964E-02   0.59365E-02   0.57608E-02
   0.45303E+02   0.59135E-02   0.56820E-02   0.57257E-02   0.57220E-02   0.56798E-02   0.56854E-02   0.57271E-02   0.58170E-02   0.58221E-02   0.56577E-02   0.58164E-02   0.56974E-02   0.56627E-02   0.56598E-02   0.59135E-02   0.57271E-02   0.56854E-02   0.56798E-02   0.57220E-02   0.57257E-02   0.56820E-02   0.58164E-02   0.56627E-02   0.56974E-02   0.58170E-02   0.56577E-02   0.58221E-02   0.56598E-02
   0.45969E+02   0.58036E-02   0.56000E-02   0.56407E-02   0.56251E-02   0.55754E-02   0.55942E-02   0.56534E-02   0.57198E-02   0.57315E-02   0.55531E-02   0.57111E-02   0.56150E-02   0.55835E-02   0.55760E-02   0.58036E-02   0.56534E-02   0.55942E-02   0.55754E-02   0.56251E-02   0.56407E-02   0.56000E-02   0.57111E-02   0.55835E-02   0.56150E-02   0.57198E-02   0.55531E-02   0.57315E-02   0.55760E-02
   0.46635E+02   0.57471E-02   0.55759E-02   0.56232E-02   0.55939E-02   0.55353E-02   0.55701E-02   0.56382E-02   0.56785E-02   0.56989E-02   0.55180E-02   0.56666E-02   0.55989E-02   0.55699E-02   0.55502E-02   0.57471E-02   0.56382E-02   0.55701E-02   0.55353E-02   0.55939E-02   0.56232E-02   0.55759E-02   0.56666E-02   0.55699E-02   0.55989E-02   0.56785E-02   0.55180E-02   0.56989E-02   0.55502E-02
   0.47302E+02   0.55954E-02   0.54454E-02   0.55000E-02   0.54619E-02   0.53982E-02   0.54436E-02   0.55109E-02   0.55359E-02   0.55618E-02   0.53869E-02   0.55247E-02   0.54768E-02   0.54485E-02   0.54181E-02   0.55954E-02   0.55109E-02   0.54436E-02   0.53982E-02   0.54619E-02   0.55000E-02   0.54454E-02   0.55247E-02   0.54485E-02   0.54768E-02   0.55359E-02   0.53869E-02   0.55618E-02   0.54181E-02
   0.47968E+02   0.83062E-02   0.80972E-02   0.82464E-02   0.82374E-02   0.81486E-02   0.81777E-02   0.82835E-02   0.83015E-02   0.83469E-02   0.80791E-02   0.82880E-02   0.81739E-02   0.81716E-02   0.81338E-02   0.83062E-02   0.82835E-02   0.81777E-02   0.81486E-02   0.82374E-02   0.82464E-02   0.80972E-02   0.82880E-02   0.81716E-02   0.81739E-02   0.83015E-02   0.80791E-02   0.83469E-02   0.81338E-02