BEGIN_CFG
 Size
    128
 Supercell
         0.000000      9.486026      9.486026
         9.486026      0.000000      9.486026
         9.486026      9.486026      0.000000
 AtomData:  id type       cartes_x      cartes_y      cartes_z           fx          fy          fz
             1            0 9.438570      18.889850      9.454550       0.662580      1.190694      -0.673919
             2            0 9.439860      2.432660      11.793270       2.751572      -1.980768      2.291147
             3            0 0.092120      4.736470      4.781360       -0.492154      0.690750      -0.671670
             4            0 9.502410      7.073220      16.510960       -1.447996      1.027322      1.916850
             5            0 2.316300      0.026990      2.292620       1.069027      -0.062095      1.291463
             6            0 2.401280      2.313040      4.667540       -1.743196      1.355044      2.258701
             7            0 11.791220      14.192210      7.049350       1.745696      0.107428      0.951553
             8            0 11.803070      16.650810      9.553160       0.799085      -1.189417      -0.853794
             9            0 4.832530      9.456090      14.196010       -2.621766      0.271953      0.319251
             10            0 14.139150      11.900700      7.107040       1.812784      -1.589687      1.684358
             11            0 14.246350      14.209180      9.582490       0.121713      0.333877      -1.676998
             12            0 4.713770      7.179910      11.787760       2.129059      -2.752526      2.583734
             13            0 16.542770      9.426870      7.170760       0.205460      0.194612      -1.585189
             14            0 16.575700      11.779190      9.542990       2.190679      2.099306      -1.989687
             15            0 16.605250      14.236860      11.957110       0.581543      0.251731      -1.098454
             16            0 16.596450      16.631270      14.324110       0.275646      -0.559575      -0.530554
             17            0 11.870470      11.819990      18.880270       -0.041601      0.718624      0.362945
             18            0 11.889590      4.714040      11.767350       -0.497465      0.817544      0.218927
             19            0 11.769970      7.156630      14.252700       1.624654      -0.657491      -0.073861
             20            0 2.368490      9.386170      7.118970       0.175097      1.728250      -0.181367
             21            0 4.778150      11.815200      11.774020       -1.285080      1.768053      1.629080
             22            0 4.750300      4.649050      4.776440       0.184605      0.878659      -0.587926
             23            0 4.701230      7.082900      7.029340       1.554782      -0.678805      1.977719
             24            0 4.753680      9.427180      9.566170       -0.978638      1.035682      -1.103938
             25            0 7.207670      11.891200      14.242780       -0.991076      -0.429812      -0.367350
             26            0 7.040130      4.689900      7.073960       0.775410      1.099115      1.002986
             27            0 7.125390      7.198310      9.432530       -0.905153      -1.167242      -0.480316
             28            0 7.198060      9.431080      11.859030       -1.628882      0.725726      -0.272932
             29            0 9.568520      11.855360      16.544070       -1.467822      0.720404      2.220561
             30            0 9.389900      4.742710      9.513590       1.848775      -0.953177      -0.236095
             31            0 9.400320      7.091880      11.903820       1.252210      1.041439      -0.878336
             32            0 9.448930      9.503460      14.320250       1.078127      1.512095      -2.776121
             33            0 4.801070      14.163500      9.437710       -1.581372      1.787541      2.227351
             34            0 14.141160      7.132970      11.813530       0.866268      -0.074487      1.989455
             35            0 4.747770      9.410900      4.808850       0.132115      2.351889      -0.362458
             36            0 4.724800      11.890090      7.207300       1.498863      0.734509      -2.429371
             37            0 7.174590      14.253810      11.781520       -1.398719      1.134927      1.165855
             38            0 7.084770      7.032290      4.791520       0.394405      2.304754      -1.421309
             39            0 7.206840      9.507650      7.146300       -2.692494      -1.200115      -1.589975
             40            0 7.194930      11.823560      9.534820       -1.266051      0.077231      -0.671486
             41            0 9.415920      4.673120      4.757170       0.176100      2.031491      0.056268
             42            0 9.524460      7.206420      7.123270       -1.186937      -1.784037      -0.137154
             43            0 9.582610      9.479600      9.460900       -1.969293      1.070272      0.159596
             44            0 9.501760      11.934940      11.796210       0.890908      -0.893095      2.314890
             45            0 11.937240      14.277920      16.565090       -0.943198      0.243121      -0.119191
             46            0 11.926270      7.089140      9.554080       -1.206292      0.886710      -1.350848
             47            0 11.883090      9.405000      11.804790       -1.841787      3.558342      2.104167
             48            0 11.785570      11.921990      14.203210       0.272865      -1.518118      0.831987
             49            0 7.126860      16.502230      9.499530       0.098388      0.841839      -1.342699
             50            0 16.563150      9.578740      11.855050       0.906377      -0.945042      0.404533
             51            0 16.549980      11.920590      14.287910       1.646267      -0.583218      -0.889632
             52            0 7.076260      14.248040      7.204940       -0.053275      -0.303869      -2.184406
             53            0 9.528800      7.203090      2.353450       -2.148370      -1.628291      -0.261595
             54            0 9.493580      9.481780      4.842640       -0.658129      -0.892860      -1.722840
             55            0 9.553300      11.841860      7.042210       -1.304498      1.076586      1.251103
             56            0 9.388520      14.220630      9.465490       1.614823      -0.959698      0.566229
             57            0 11.824160      7.170080      4.666860       1.087084      -1.097007      1.160436
             58            0 11.878430      9.412670      7.179190       0.828094      1.678160      -0.732675
             59            0 11.825200      11.830410      9.576690       0.864547      0.715578      -1.392515
             60            0 11.906260      14.141760      11.854810       -0.655907      1.137325      0.192832
             61            0 14.243620      16.516560      16.652830       -0.714121      0.603235      -0.419507
             62            0 14.301000      9.475000      9.554580       -1.383174      -0.459762      -1.134290
             63            0 14.160690      11.833660      11.788550       1.853501      0.014598      1.063754
             64            0 14.156690      14.280390      14.275190       1.768163      -1.869202      -0.498305
             65            1 1.235180      1.206540      1.101340       -1.886846      -0.572820      0.138002
             66            1 1.266320      3.603680      3.520450       -0.996989      -0.869899      -0.034166
             67            1 1.160240      5.983330      6.008590       1.439603      -1.704793      -2.232674
             68            1 1.130210      8.229370      8.256820       0.922418      0.647174      0.742619
             69            1 3.509610      1.270710      3.579900       2.140531      -3.103016      -2.282390
             70            1 3.578370      3.459730      5.935190       -1.771878      1.729328      -1.078552
             71            1 3.618380      5.849640      8.298760       -1.467862      0.919194      -0.019930
             72            1 3.597580      8.266950      10.757000       -2.437364      1.823717      -1.993175
             73            1 5.866230      1.139000      5.866290       1.682202      1.461004      1.594076
             74            1 5.927500      3.582930      8.396910       -0.073792      -1.104251      -1.560569
             75            1 5.966390      5.931200      10.579160       0.068833      0.837995      2.476052
             76            1 5.938170      8.253740      13.131300       0.822382      0.279703      -2.570479
             77            1 8.273040      1.122050      8.228160       0.436057      1.010515      1.168160
             78            1 8.360380      3.513870      10.738890       -2.805039      1.714408      -1.629260
             79            1 8.319360      5.956610      13.137420       -0.379387      -0.571417      -0.335647
             80            1 8.383150      8.341750      15.377230       -2.585460      -1.188522      1.876264
             81            1 3.512220      3.526780      1.101830       1.306459      -0.064783      0.545688
             82            1 3.543870      5.836200      3.592650       -0.382791      1.167403      -0.610858
             83            1 3.642980      8.265240      5.966510       -2.954446      0.481212      -0.984006
             84            1 3.612790      10.747170      8.265170       -1.339703      -3.265872      0.849954
             85            1 5.998820      3.620280      3.523790       -0.456045      -1.252388      -0.014857
             86            1 5.939940      5.976770      5.841750       -1.638531      -2.648988      2.232207
             87            1 5.847900      8.358970      8.296290       1.214875      -0.847113      -0.868434
             88            1 5.844760      10.700810      10.625950       2.764965      -1.715128      0.605513
             89            1 8.357360      3.559240      6.010840       -1.296978      -0.401352      -0.669872
             90            1 8.281710      5.884550      8.388020       -0.446439      1.249528      -2.658823
             91            1 8.284920      8.295360      10.573090       1.087306      0.465509      1.669173
             92            1 8.325560      10.712770      12.955650       0.008838      -0.602080      1.317123
             93            1 10.756830      3.571370      8.249600       -1.407739      0.444751      0.261107
             94            1 10.628950      5.959900      10.586950       0.111956      -0.542726      1.990765
             95            1 10.697130      8.392880      13.071250       -1.325522      -1.235387      -0.306645
             96            1 10.585700      10.722590      15.417510       2.746886      -1.848609      -0.576760
             97            1 5.881740      6.015760      1.170900       0.297579      -2.090528      0.325914
             98            1 5.934260      8.353240      3.641900       -0.098985      -1.038471      -2.129643
             99            1 6.010090      10.706790      5.882280       -1.732591      -0.894308      2.319582
             100            1 5.931380      13.090430      8.388420       1.692267      -1.996579      -1.563615
             101            1 8.229760      5.987610      3.596830       1.805270      -1.135462      -1.479943
             102            1 8.224760      8.235110      5.921600       1.254261      0.832489      0.738439
             103            1 8.269230      10.648420      8.208130       2.420861      1.534840      2.178340
             104            1 8.306640      13.000740      10.762050       -0.421873      1.350656      -2.562576
             105            1 10.619370      5.980500      5.861110       0.740755      -0.250992      0.962937
             106            1 10.643700      8.383380      8.252270       1.475962      -2.225587      1.360099
             107            1 10.621240      10.757290      10.660240       0.663367      -2.056604      0.730001
             108            1 10.660890      13.076980      13.136800       -0.447088      0.161885      -2.703175
             109            1 13.100330      5.919000      8.381820       -0.642182      -0.448845      -1.044283
             110            1 12.974910      8.341290      10.732130       2.213173      -1.147007      -1.909183
             111            1 13.018630      10.756210      13.090860       0.171037      -2.035217      -0.888192
             112            1 12.999160      13.029620      15.326100       0.855217      0.371375      2.240482
             113            1 8.272920      8.263740      1.096780       -0.311279      0.754544      2.000812
             114            1 8.309120      10.746710      3.622890       0.257364      -0.785426      -0.830823
             115            1 8.291500      13.091810      5.841770       0.508014      -0.207087      2.338300
             116            1 8.347480      15.345750      8.245460       -1.179330      1.384947      0.282960
             117            1 10.680550      8.239200      3.478560       0.059721      3.066163      1.128144
             118            1 10.643620      10.607300      5.999820       2.022860      0.169172      -1.294184
             119            1 10.761560      13.038810      8.344090       -2.053137      -0.125526      -0.587347
             120            1 10.572400      15.423450      10.664730       1.495937      -0.829579      0.389722
             121            1 13.091460      8.252710      6.002370       -0.714293      0.543092      -1.169548
             122            1 13.014880      10.711650      8.387470       0.549571      -1.355963      -0.880703
             123            1 13.092080      12.992340      10.600900       -1.385538      0.697289      1.880019
             124            1 13.083510      15.366170      13.120860       -1.408280      1.589722      -2.877025
             125            1 15.372480      8.210700      8.286610       0.976381      0.681071      1.066659
             126            1 15.456250      10.701030      10.585610       -1.679882      -1.336149      2.917844
             127            1 15.496900      13.005610      13.086160       -2.967747      1.270451      -1.234162
             128            1 15.324160      15.437390      15.379070       1.849282      -0.727681      1.755572
 Energy
      -715.666794
 PlusStress:  xx          yy          zz          yz          xz          xy
      92.529830      93.142350      90.420130    -1.692940      -8.136460      -2.214860
 Feature   EFS_by	VASP
 Feature   mindist	1.476570
END_CFG

BEGIN_CFG
 Size
    128
 Supercell
         0.000000      9.486026      9.486026
         9.486026      0.000000      9.486026
         9.486026      9.486026      0.000000
 AtomData:  id type       cartes_x      cartes_y      cartes_z           fx          fy          fz
             1            0 9.466910      18.877680      9.459050       -0.509342      1.486079      0.051107
             2            0 9.516240      11.903350      2.455100       -0.322606      -0.847385      -1.300434
             3            0 9.501490      14.170510      4.822610       -1.462721      0.503079      -1.654988
             4            0 0.077150      7.075530      7.064230       -2.268260      1.108314      1.113377
             5            0 2.296920      0.059850      2.342280       1.449568      -0.759217      0.673874
             6            0 2.350530      2.468350      4.756480       0.270766      -1.496245      -0.584537
             7            0 2.468870      4.744930      7.091800       -2.109248      0.398263      -0.106493
             8            0 2.456130      7.167290      9.493310       -0.942910      -0.542977      -0.475011
             9            0 4.829330      9.519470      14.266860       -1.458662      -0.250081      -1.340198
             10            0 14.154900      11.883810      7.176270       1.971685      -0.155201      -0.598033
             11            0 4.730170      4.683440      9.406740       0.560413      1.645323      2.174037
             12            0 14.253050      16.503730      11.850490       -0.494478      1.059403      0.211236
             13            0 16.546570      18.888650      16.589130       0.670300      2.845308      -0.588439
             14            0 16.507830      11.848190      9.449730       0.870399      0.846143      0.507381
             15            0 16.509240      14.226270      11.816850       1.946465      -0.998454      0.805558
             16            0 16.507730      16.637730      14.230670       1.318377      -0.719569      0.171079
             17            0 2.352080      11.775360      9.539610       1.330869      1.972495      -0.605465
             18            0 11.882380      4.716930      11.764250       -0.679125      2.152654      1.910639
             19            0 2.450670      7.095100      4.800940       -1.873998      0.789478      -0.499624
             20            0 11.871360      9.567750      16.544590       0.252202      -1.454192      0.633694
             21            0 4.725040      11.904800      11.771260       0.669146      -0.219004      1.419805
             22            0 4.719940      4.839280      4.757150       0.272623      -2.115044      0.149092
             23            0 4.658460      7.116280      7.061150       1.988091      -0.646301      2.678868
             24            0 4.824170      9.544420      9.484240       -1.166888      -0.201642      0.397001
             25            0 7.068600      2.459260      4.729160       2.222963      -1.561344      1.702497
             26            0 7.175320      4.712640      7.187880       -1.194911      1.544120      -0.324864
             27            0 7.107960      7.074740      9.394510       0.294661      0.918045      2.419334
             28            0 7.135290      9.513820      11.763740       0.321608      -1.533965      3.066620
             29            0 9.575090      11.813440      16.589430       -2.128129      1.236262      1.530543
             30            0 9.397350      4.728710      9.442080       1.702485      1.397057      0.255265
             31            0 9.539280      7.093210      11.939450       -1.639973      0.279561      -0.823376
             32            0 9.546450      9.562940      14.208220       -0.906039      -1.496769      0.564338
             33            0 14.223230      14.262690      18.878060       -0.212209      0.768683      2.219307
             34            0 14.221760      7.209470      11.888040       0.688052      -0.085820      -0.161509
             35            0 14.137970      9.462580      14.195040       2.270059      0.706860      0.884056
             36            0 14.147750      11.914550      16.588690       0.766444      0.087978      -0.014722
             37            0 7.135540      14.170330      11.935710       -1.009262      0.314964      -0.337796
             38            0 7.082890      7.105890      4.837490       -0.093916      -0.447555      -0.274061
             39            0 7.189070      9.427510      7.146420       -1.073088      1.549543      0.472203
             40            0 7.032530      11.884290      9.536640       0.099904      -0.101142      -0.353762
             41            0 9.407890      4.699750      4.787990       1.471997      1.212000      -0.401305
             42            0 9.479780      7.017950      7.139730       1.348823      1.859880      -0.216569
             43            0 9.447970      9.526450      9.402850       -0.007174      -0.290332      1.994219
             44            0 9.391680      11.826830      11.870030       1.022022      0.049561      0.986869
             45            0 11.858610      4.821370      7.052400       1.343726      -2.539568      2.100065
             46            0 11.942900      7.101180      9.536360       -1.879858      1.005286      0.869322
             47            0 11.818060      9.400370      11.890770       0.276434      2.299325      -0.267019
             48            0 11.951820      11.832280      14.207290       -3.202384      0.692274      1.253476
             49            0 7.213810      16.602360      9.474280       -2.260994      0.311849      0.171851
             50            0 7.195690      9.428490      2.381540       -2.372823      1.784407      0.543233
             51            0 16.510770      11.894360      14.253220       0.635415      -0.893418      0.598346
             52            0 7.191640      14.165480      7.111050       -1.677889      0.629673      0.957789
             53            0 9.536640      16.514310      11.856400       -0.868447      0.967477      0.339402
             54            0 9.514880      9.449220      4.831400       -1.863815      -0.798068      -1.750423
             55            0 9.577790      11.894590      7.100190       -1.225049      -0.730967      0.166062
             56            0 9.437250      14.240290      9.399450       1.011421      -1.724669      2.117577
             57            0 11.889760      7.071230      4.827200       -0.066808      0.054950      -0.993137
             58            0 11.907030      9.419160      7.059030       -0.245225      0.832520      0.766619
             59            0 11.882220      11.771510      9.441410       -1.598997      2.407739      1.935437
             60            0 11.847460      14.266050      11.765180       -0.070886      -0.521900      2.341484
             61            0 14.326980      16.609030      16.618880       -1.838434      -1.093528      -0.282095
             62            0 14.176640      9.571200      9.486490       1.052732      -0.857484      -0.067826
             63            0 14.150740      11.919160      11.865930       0.823266      -0.376034      0.755647
             64            0 14.319150      14.269440      14.244790       -1.868569      -0.987862      0.009841
             65            1 1.202520      1.144400      1.096260       -2.020159      -0.049794      1.777569
             66            1 1.211630      3.645600      3.518200       0.190565      -0.799522      1.162935
             67            1 1.093830      5.938700      5.890670       3.019125      -0.627410      0.080670
             68            1 1.158470      8.355370      8.221410       1.537518      -1.373475      0.654567
             69            1 3.596410      1.209410      3.468340       -1.005872      0.428927      1.567831
             70            1 3.569080      3.507880      6.014910       -0.555037      1.263412      -2.233691
             71            1 3.583550      5.832280      8.300380       -0.576777      2.795974      -0.010124
             72            1 3.587190      8.341960      10.757610       0.058535      -0.504730      -1.363138
             73            1 5.933780      1.280800      5.898100       -0.188209      -0.935084      1.480472
             74            1 5.871520      3.637330      8.282630       1.612302      -2.064414      -0.244719
             75            1 6.027740      5.942380      10.676160       -2.384768      -0.473063      -1.694116
             76            1 5.851970      8.236270      13.045820       1.145010      1.514305      -0.520004
             77            1 8.210920      1.148900      8.325910       0.940939      0.154377      -0.684899
             78            1 8.391490      3.591480      10.649220       -2.669689      -1.377941      0.873051
             79            1 8.251180      5.959030      12.961590       -0.110540      -0.978986      2.394559
             80            1 8.265870      8.394080      15.410660       0.803525      -2.207595      -0.697798
             81            1 3.574160      3.655130      1.197420       0.517796      -1.903022      -1.715818
             82            1 3.598300      6.015620      3.585050       -0.844185      -1.126259      -1.127508
             83            1 3.652750      8.285160      5.954320       -2.880154      1.223554      -0.692301
             84            1 3.526040      10.748180      8.243810       0.533273      -1.068275      1.227556
             85            1 5.939700      3.484860      3.625370       -1.985449      2.505089      -1.836523
             86            1 5.845090      5.928830      5.983520       1.776771      -0.161381      -0.042611
             87            1 5.991210      8.330090      8.372460       -1.466856      -0.321950      -1.484762
             88            1 5.961110      10.651570      10.764220       -1.009015      1.412252      -2.155797
             89            1 8.322390      3.635130      5.987470       -0.435114      -2.313223      0.186307
             90            1 8.313280      6.027690      8.306980       -0.271496      -2.781773      -0.113198
             91            1 8.285270      8.235780      10.746720       0.629294      0.777809      -2.185557
             92            1 8.320580      10.633270      13.133310       -1.617162      1.180460      -1.574404
             93            1 10.718860      3.545960      8.387770       -0.469999      0.245393      -1.562939
             94            1 10.628400      5.988440      10.739290       1.205773      -1.282276      -1.718590
             95            1 10.600060      8.333240      12.981890       1.842850      -0.712478      2.708298
             96            1 10.604540      10.627610      15.474190       2.404721      1.074492      -1.796585
             97            1 5.960970      5.971140      1.270410       -0.353231      -0.401598      -1.204592
             98            1 5.989020      8.303320      3.637010       -0.784544      0.512260      -0.882676
             99            1 5.911410      10.693600      6.024800       -0.384212      -0.965724      -1.011449
             100            1 5.836190      13.079730      8.310370       1.485855      -0.789653      -0.585057
             101            1 8.221630      5.894520      3.608670       1.508708      0.746166      -0.007502
             102            1 8.266940      8.246820      6.006430       1.611257      -0.072367      -0.885665
             103            1 8.266200      10.765760      8.302780       0.646272      -0.530536      -0.067855
             104            1 8.248230      12.991340      10.739560       0.497617      1.098245      -1.390617
             105            1 10.712060      5.859610      5.988730       -2.260672      1.608187      -1.799368
             106            1 10.708640      8.319120      8.391300       -0.036971      -0.518569      -1.739672
             107            1 10.611330      10.667590      10.751330       0.726701      -0.229776      -1.562369
             108            1 10.616660      13.005860      13.117860       0.638759      0.282921      -1.629176
             109            1 12.976590      5.941000      8.373770       1.644861      0.319880      -2.210976
             110            1 13.032790      8.399590      10.666720       0.614553      -1.237327      0.351586
             111            1 13.036000      10.726470      13.126690       0.109833      -2.027409      -2.712277
             112            1 13.038200      13.035900      15.315190       0.362673      1.302665      1.519499
             113            1 8.217510      8.354270      1.170450       2.931530      -2.020683      0.128235
             114            1 8.206270      10.698880      3.577950       1.805269      -0.240846      0.327592
             115            1 8.259660      12.976680      5.991330       1.446248      0.067728      -1.397901
             116            1 8.281550      15.343970      8.368340       0.128512      1.803467      -2.396229
             117            1 10.762500      8.306320      3.598900       -1.525736      -0.720289      -0.307597
             118            1 10.601710      10.617310      5.882680       2.477880      1.456970      1.326818
             119            1 10.685200      13.126290      8.246150       0.660413      -1.395695      0.639454
             120            1 10.670990      15.346010      10.599190       -0.148692      1.776960      0.026829
             121            1 13.102630      8.236360      5.879850       0.419586      1.111172      1.281775
             122            1 13.084020      10.743160      8.357240       -1.179436      -1.942295      -1.964769
             123            1 13.075480      13.133910      10.699180       -1.007856      -1.673524      -1.145817
             124            1 13.097590      15.400520      13.126030       -1.143375      -0.177167      -1.650950
             125            1 15.394230      8.354730      8.218960       -0.077764      -1.155412      2.632533
             126            1 15.337420      10.734730      10.664680       0.978609      -0.700409      1.046900
             127            1 15.367600      13.053010      13.130910       0.560635      0.054953      -2.187673
             128            1 15.411530      15.318080      15.440030       1.589400      1.873492      0.903769
 Energy
      -716.116635
 PlusStress:  xx          yy          zz          yz          xz          xy
      89.963910      91.795820      91.523070    5.101580      -5.125830      -15.695280
 Feature   EFS_by	VASP
 Feature   mindist	1.476570
END_CFG

BEGIN_CFG
 Size
    128
 Supercell
         0.000000      9.486026      9.486026
         9.486026      0.000000      9.486026
         9.486026      9.486026      0.000000
 AtomData:  id type       cartes_x      cartes_y      cartes_z           fx          fy          fz