   0.63469E+00   0.39052E-04   0.39049E-04   0.39052E-04   0.39049E-04
   0.12694E+01   0.18556E-03   0.18555E-03   0.18556E-03   0.18555E-03
   0.19041E+01   0.21016E-03   0.21013E-03   0.21016E-03   0.21013E-03
   0.25387E+01   0.28242E-03   0.28232E-03   0.28242E-03   0.28232E-03
   0.31734E+01   0.37176E-03   0.37155E-03   0.37176E-03   0.37155E-03
   0.38081E+01   0.47411E-03   0.47375E-03   0.47411E-03   0.47375E-03
   0.44428E+01   0.64036E-03   0.63981E-03   0.64036E-03   0.63981E-03
   0.50775E+01   0.75498E-03   0.75424E-03   0.75498E-03   0.75424E-03
   0.57122E+01   0.82070E-03   0.81981E-03   0.82070E-03   0.81981E-03
   0.63469E+01   0.87015E-03   0.86903E-03   0.87015E-03   0.86903E-03
   0.69815E+01   0.91677E-03   0.91517E-03   0.91677E-03   0.91517E-03
   0.76162E+01   0.11201E-02   0.11177E-02   0.11201E-02   0.11177E-02
   0.82509E+01   0.13629E-02   0.13597E-02   0.13629E-02   0.13597E-02
   0.88856E+01   0.14505E-02   0.14466E-02   0.14505E-02   0.14466E-02
   0.95203E+01   0.16060E-02   0.16019E-02   0.16060E-02   0.16019E-02
   0.10155E+02   0.14903E-02   0.14858E-02   0.14903E-02   0.14858E-02
   0.10790E+02   0.17077E-02   0.17020E-02   0.17077E-02   0.17020E-02
   0.11424E+02   0.19853E-02   0.19775E-02   0.19853E-02   0.19775E-02
   0.12059E+02   0.23071E-02   0.22972E-02   0.23071E-02   0.22972E-02
   0.12694E+02   0.23933E-02   0.23822E-02   0.23933E-02   0.23822E-02
   0.13328E+02   0.25524E-02   0.25411E-02   0.25524E-02   0.25411E-02
   0.13963E+02   0.24694E-02   0.24571E-02   0.24694E-02   0.24571E-02
   0.14598E+02   0.26132E-02   0.25980E-02   0.26132E-02   0.25980E-02
   0.15232E+02   0.29707E-02   0.29509E-02   0.29707E-02   0.29509E-02
   0.15867E+02   0.32753E-02   0.32520E-02   0.32753E-02   0.32520E-02
   0.16502E+02   0.33481E-02   0.33245E-02   0.33481E-02   0.33245E-02
   0.17137E+02   0.32155E-02   0.31942E-02   0.32155E-02   0.31942E-02
   0.17771E+02   0.30432E-02   0.30245E-02   0.30432E-02   0.30245E-02
   0.18406E+02   0.44229E-02   0.43737E-02   0.44229E-02   0.43737E-02
   0.19041E+02   0.48650E-02   0.48082E-02   0.48650E-02   0.48082E-02
   0.19675E+02   0.41560E-02   0.41150E-02   0.41560E-02   0.41150E-02
   0.20310E+02   0.41623E-02   0.41197E-02   0.41623E-02   0.41197E-02
   0.20945E+02   0.48551E-02   0.47949E-02   0.48551E-02   0.47949E-02
   0.21579E+02   0.53667E-02   0.52941E-02   0.53667E-02   0.52941E-02
   0.22214E+02   0.51613E-02   0.50934E-02   0.51613E-02   0.50934E-02
   0.22849E+02   0.55330E-02   0.54522E-02   0.55330E-02   0.54522E-02
   0.23483E+02   0.64212E-02   0.63135E-02   0.64212E-02   0.63135E-02
   0.24118E+02   0.63881E-02   0.62823E-02   0.63881E-02   0.62823E-02
   0.24753E+02   0.75167E-02   0.73663E-02   0.75167E-02   0.73663E-02
   0.25387E+02   0.78370E-02   0.76782E-02   0.78370E-02   0.76782E-02
   0.26022E+02   0.11182E-01   0.10884E-01   0.11182E-01   0.10884E-01
   0.26657E+02   0.90946E-02   0.88904E-02   0.90946E-02   0.88904E-02
   0.27291E+02   0.78809E-02   0.77260E-02   0.78809E-02   0.77260E-02
   0.27926E+02   0.75338E-02   0.73913E-02   0.75338E-02   0.73913E-02
   0.28561E+02   0.69853E-02   0.68621E-02   0.69853E-02   0.68621E-02
   0.29196E+02   0.69088E-02   0.67887E-02   0.69088E-02   0.67887E-02
   0.29830E+02   0.66857E-02   0.65747E-02   0.66857E-02   0.65747E-02
   0.30465E+02   0.65194E-02   0.64171E-02   0.65194E-02   0.64171E-02
   0.31100E+02   0.65682E-02   0.64682E-02   0.65682E-02   0.64682E-02
   0.31734E+02   0.66454E-02   0.65467E-02   0.66454E-02   0.65467E-02
   0.32369E+02   0.65811E-02   0.64878E-02   0.65811E-02   0.64878E-02
   0.33004E+02   0.64878E-02   0.64006E-02   0.64878E-02   0.64006E-02
   0.33638E+02   0.65221E-02   0.64369E-02   0.65221E-02   0.64369E-02
   0.34273E+02   0.66202E-02   0.65350E-02   0.66202E-02   0.65350E-02
   0.34908E+02   0.66692E-02   0.65852E-02   0.66692E-02   0.65852E-02
   0.35542E+02   0.66501E-02   0.65692E-02   0.66501E-02   0.65692E-02
   0.36177E+02   0.66089E-02   0.65317E-02   0.66089E-02   0.65317E-02
   0.36812E+02   0.66015E-02   0.65269E-02   0.66015E-02   0.65269E-02
   0.37446E+02   0.66528E-02   0.65787E-02   0.66528E-02   0.65787E-02
   0.38081E+02   0.67282E-02   0.66533E-02   0.67282E-02   0.66533E-02
   0.38716E+02   0.67454E-02   0.66701E-02   0.67454E-02   0.66701E-02
   0.39351E+02   0.66570E-02   0.65834E-02   0.66570E-02   0.65834E-02
   0.39985E+02   0.65035E-02   0.64327E-02   0.65035E-02   0.64327E-02
   0.40620E+02   0.63772E-02   0.63088E-02   0.63772E-02   0.63088E-02
   0.41255E+02   0.63399E-02   0.62724E-02   0.63399E-02   0.62724E-02
   0.41889E+02   0.63951E-02   0.63274E-02   0.63951E-02   0.63274E-02
   0.42524E+02   0.65084E-02   0.64402E-02   0.65084E-02   0.64402E-02
   0.43159E+02   0.66400E-02   0.65718E-02   0.66400E-02   0.65718E-02
   0.43793E+02   0.67544E-02   0.66869E-02   0.67544E-02   0.66869E-02
   0.44428E+02   0.68281E-02   0.67622E-02   0.68281E-02   0.67622E-02
   0.45063E+02   0.68634E-02   0.67994E-02   0.68634E-02   0.67994E-02
   0.45697E+02   0.68831E-02   0.68207E-02   0.68831E-02   0.68207E-02
   0.46332E+02   0.69164E-02   0.68544E-02   0.69164E-02   0.68544E-02
   0.46967E+02   0.69721E-02   0.69093E-02   0.69721E-02   0.69093E-02
   0.47601E+02   0.70304E-02   0.69663E-02   0.70304E-02   0.69663E-02
   0.48236E+02   0.70587E-02   0.69938E-02   0.70587E-02   0.69938E-02
   0.48871E+02   0.70447E-02   0.69802E-02   0.70447E-02   0.69802E-02
   0.49505E+02   0.70082E-02   0.69451E-02   0.70082E-02   0.69451E-02
   0.50140E+02   0.69867E-02   0.69252E-02   0.69867E-02   0.69252E-02
   0.50775E+02   0.70069E-02   0.69463E-02   0.70069E-02   0.69463E-02
   0.51410E+02   0.70670E-02   0.70060E-02   0.70670E-02   0.70060E-02
   0.52044E+02   0.71455E-02   0.70834E-02   0.71455E-02   0.70834E-02
   0.52679E+02   0.72243E-02   0.71609E-02   0.72243E-02   0.71609E-02
   0.53314E+02   0.72997E-02   0.72352E-02   0.72997E-02   0.72352E-02
   0.53948E+02   0.73796E-02   0.73148E-02   0.73796E-02   0.73148E-02
   0.54583E+02   0.74700E-02   0.74057E-02   0.74700E-02   0.74057E-02
   0.55218E+02   0.75701E-02   0.75073E-02   0.75701E-02   0.75073E-02
   0.55852E+02   0.76774E-02   0.76164E-02   0.76774E-02   0.76164E-02
   0.56487E+02   0.77907E-02   0.77310E-02   0.77907E-02   0.77310E-02
   0.57122E+02   0.79109E-02   0.78513E-02   0.79109E-02   0.78513E-02
   0.57756E+02   0.80305E-02   0.79693E-02   0.80305E-02   0.79693E-02
   0.58391E+02   0.81276E-02   0.80635E-02   0.81276E-02   0.80635E-02
   0.59026E+02   0.81670E-02   0.80999E-02   0.81670E-02   0.80999E-02
   0.59660E+02   0.81237E-02   0.80544E-02   0.81237E-02   0.80544E-02
   0.60295E+02   0.80004E-02   0.79307E-02   0.80004E-02   0.79307E-02
   0.60930E+02   0.78390E-02   0.77703E-02   0.78390E-02   0.77703E-02
   0.61565E+02   0.77014E-02   0.76343E-02   0.77014E-02   0.76343E-02
   0.62199E+02   0.76508E-02   0.75846E-02   0.76508E-02   0.75846E-02
   0.62834E+02   0.77197E-02   0.76530E-02   0.77197E-02   0.76530E-02
   0.63469E+02   0.79012E-02   0.78323E-02   0.79012E-02   0.78323E-02
   0.64103E+02   0.81578E-02   0.80857E-02   0.81578E-02   0.80857E-02
   0.64738E+02   0.84375E-02   0.83619E-02   0.84375E-02   0.83619E-02
   0.65373E+02   0.86915E-02   0.86131E-02   0.86915E-02   0.86131E-02
   0.66007E+02   0.88836E-02   0.88037E-02   0.88836E-02   0.88037E-02
   0.66642E+02   0.89996E-02   0.89199E-02   0.89996E-02   0.89199E-02
   0.67277E+02   0.90548E-02   0.89766E-02   0.90548E-02   0.89766E-02
   0.67911E+02   0.90909E-02   0.90144E-02   0.90909E-02   0.90144E-02
   0.68546E+02   0.91542E-02   0.90783E-02   0.91542E-02   0.90783E-02
   0.69181E+02   0.92755E-02   0.91973E-02   0.92755E-02   0.91973E-02
   0.69815E+02   0.94436E-02   0.93600E-02   0.94436E-02   0.93600E-02
   0.70450E+02   0.96091E-02   0.95179E-02   0.96091E-02   0.95179E-02
   0.71085E+02   0.97054E-02   0.96066E-02   0.97054E-02   0.96066E-02
   0.71720E+02   0.96902E-02   0.95858E-02   0.96902E-02   0.95858E-02
   0.72354E+02   0.95768E-02   0.94703E-02   0.95768E-02   0.94703E-02
   0.72989E+02   0.94325E-02   0.93264E-02   0.94325E-02   0.93264E-02
   0.73624E+02   0.93447E-02   0.92400E-02   0.93447E-02   0.92400E-02
   0.74258E+02   0.93845E-02   0.92797E-02   0.93845E-02   0.92797E-02
   0.74893E+02   0.95884E-02   0.94805E-02   0.95884E-02   0.94805E-02
   0.75528E+02   0.99613E-02   0.98466E-02   0.99613E-02   0.98466E-02
   0.76162E+02   0.10465E-01   0.10340E-01   0.10465E-01   0.10340E-01
   0.76797E+02   0.11011E-01   0.10875E-01   0.11011E-01   0.10875E-01
   0.77432E+02   0.11471E-01   0.11325E-01   0.11471E-01   0.11325E-01
   0.78066E+02   0.11726E-01   0.11573E-01   0.11726E-01   0.11573E-01
   0.78701E+02   0.11737E-01   0.11582E-01   0.11737E-01   0.11582E-01
   0.79336E+02   0.11601E-01   0.11446E-01   0.11601E-01   0.11446E-01
   0.79970E+02   0.11499E-01   0.11342E-01   0.11499E-01   0.11342E-01
   0.80605E+02   0.11577E-01   0.11409E-01   0.11577E-01   0.11409E-01
   0.81240E+02   0.11853E-01   0.11664E-01   0.11853E-01   0.11664E-01
   0.81874E+02   0.12264E-01   0.12049E-01   0.12264E-01   0.12049E-01
   0.82509E+02   0.12772E-01   0.12526E-01   0.12772E-01   0.12526E-01
   0.83144E+02   0.13363E-01   0.13089E-01   0.13363E-01   0.13089E-01
   0.83779E+02   0.13947E-01   0.13653E-01   0.13947E-01   0.13653E-01
   0.84413E+02   0.14496E-01   0.14189E-01   0.14496E-01   0.14189E-01
   0.85048E+02   0.15561E-01   0.15227E-01   0.15561E-01   0.15227E-01
   0.85683E+02   0.17482E-01   0.17092E-01   0.17482E-01   0.17092E-01
   0.86317E+02   0.21327E-01   0.20814E-01   0.21327E-01   0.20814E-01
   0.86952E+02   0.24324E-01   0.23697E-01   0.24324E-01   0.23697E-01
   0.87587E+02   0.20965E-01   0.20347E-01   0.20965E-01   0.20347E-01
   0.88221E+02   0.14343E-01   0.13999E-01   0.14343E-01   0.13999E-01
   0.88856E+02   0.95305E-02   0.92618E-02   0.95305E-02   0.92618E-02
   0.89491E+02   0.76085E-02   0.73853E-02   0.76085E-02   0.73853E-02
   0.90125E+02   0.72028E-02   0.69353E-02   0.72028E-02   0.69353E-02
   0.90760E+02   0.69973E-02   0.66859E-02   0.69973E-02   0.66859E-02
   0.91395E+02   0.64097E-02   0.60993E-02   0.64097E-02   0.60993E-02
   0.92029E+02   0.60478E-02   0.57318E-02   0.60478E-02   0.57318E-02
   0.92664E+02   0.59228E-02   0.56212E-02   0.59228E-02   0.56212E-02
   0.93299E+02   0.56719E-02   0.54391E-02   0.56719E-02   0.54391E-02
   0.93934E+02   0.53357E-02   0.51953E-02   0.53357E-02   0.51953E-02
   0.94568E+02   0.51207E-02   0.50546E-02   0.51207E-02   0.50546E-02
   0.95203E+02   0.50812E-02   0.50593E-02   0.50812E-02   0.50593E-02
   0.95838E+02   0.52350E-02   0.51232E-02   0.52350E-02   0.51232E-02
   0.96472E+02   0.64851E-02   0.51398E-02   0.64851E-02   0.51398E-02
   0.97107E+02   0.60806E-02   0.51336E-02   0.60806E-02   0.51336E-02
   0.97742E+02   0.58623E-02   0.91452E-02   0.58623E-02   0.91452E-02
   0.98376E+02   0.48338E-02   0.48623E-02   0.48338E-02   0.48623E-02
   0.99011E+02   0.49282E-02   0.49762E-02   0.49282E-02   0.49762E-02
   0.99646E+02   0.52853E-02   0.53726E-02   0.52853E-02   0.53726E-02
   0.10028E+03   0.59266E-02   0.60792E-02   0.59266E-02   0.60792E-02
   0.10092E+03   0.67633E-02   0.69976E-02   0.67633E-02   0.69976E-02
   0.10155E+03   0.75508E-02   0.78496E-02   0.75508E-02   0.78496E-02
   0.10218E+03   0.79807E-02   0.82963E-02   0.79807E-02   0.82963E-02
   0.10282E+03   0.79731E-02   0.82698E-02   0.79731E-02   0.82698E-02
   0.10345E+03   0.77934E-02   0.80724E-02   0.77934E-02   0.80724E-02
   0.10409E+03   0.77354E-02   0.80016E-02   0.77354E-02   0.80016E-02
   0.10472E+03   0.79236E-02   0.81688E-02   0.79236E-02   0.81688E-02
   0.10536E+03   0.84875E-02   0.87217E-02   0.84875E-02   0.87217E-02
   0.10599E+03   0.95664E-02   0.98227E-02   0.95664E-02   0.98227E-02
   0.10663E+03   0.10922E-01   0.11223E-01   0.10922E-01   0.11223E-01
   0.10726E+03   0.11805E-01   0.12132E-01   0.11805E-01   0.12132E-01
   0.10790E+03   0.11815E-01   0.12126E-01   0.11815E-01   0.12126E-01
   0.10853E+03   0.11573E-01   0.11854E-01   0.11573E-01   0.11854E-01
   0.10917E+03   0.11691E-01   0.11935E-01   0.11691E-01   0.11935E-01
   0.10980E+03   0.12724E-01   0.12943E-01   0.12724E-01   0.12943E-01
   0.11044E+03   0.14300E-01   0.14540E-01   0.14300E-01   0.14540E-01
   0.11107E+03   0.15439E-01   0.15730E-01   0.15439E-01   0.15730E-01
   0.11170E+03   0.17262E-01   0.17592E-01   0.17262E-01   0.17592E-01
   0.11234E+03   0.19092E-01   0.19380E-01   0.19092E-01   0.19380E-01
   0.11297E+03   0.20935E-01   0.21165E-01   0.20935E-01   0.21165E-01
   0.11361E+03   0.22789E-01   0.22949E-01   0.22789E-01   0.22949E-01
   0.11424E+03   0.27988E-01   0.28123E-01   0.27988E-01   0.28123E-01
   0.11488E+03   0.25473E-01   0.25743E-01   0.25473E-01   0.25743E-01
   0.11551E+03   0.24720E-01   0.24974E-01   0.24720E-01   0.24974E-01
   0.11615E+03   0.23163E-01   0.23383E-01   0.23163E-01   0.23383E-01
   0.11678E+03   0.20991E-01   0.21192E-01   0.20991E-01   0.21192E-01
   0.11742E+03   0.19368E-01   0.19556E-01   0.19368E-01   0.19556E-01
   0.11805E+03   0.18395E-01   0.18562E-01   0.18395E-01   0.18562E-01
   0.11869E+03   0.17834E-01   0.17976E-01   0.17834E-01   0.17976E-01
   0.11932E+03   0.17523E-01   0.17648E-01   0.17523E-01   0.17648E-01
   0.11996E+03   0.17338E-01   0.17458E-01   0.17338E-01   0.17458E-01
   0.12059E+03   0.17194E-01   0.17316E-01   0.17194E-01   0.17316E-01
   0.12123E+03   0.17009E-01   0.17136E-01   0.17009E-01   0.17136E-01
   0.12186E+03   0.16683E-01   0.16814E-01   0.16683E-01   0.16814E-01
   0.12249E+03   0.16181E-01   0.16308E-01   0.16181E-01   0.16308E-01
   0.12313E+03   0.15596E-01   0.15714E-01   0.15596E-01   0.15714E-01
   0.12376E+03   0.15089E-01   0.15195E-01   0.15089E-01   0.15195E-01
   0.12440E+03   0.14783E-01   0.14879E-01   0.14783E-01   0.14879E-01
   0.12503E+03   0.14737E-01   0.14827E-01   0.14737E-01   0.14827E-01
   0.12567E+03   0.14955E-01   0.15047E-01   0.14955E-01   0.15047E-01
   0.12630E+03   0.15354E-01   0.15449E-01   0.15354E-01   0.15449E-01
   0.12694E+03   0.15710E-01   0.15807E-01   0.15710E-01   0.15807E-01
   0.12757E+03   0.15776E-01   0.15871E-01   0.15776E-01   0.15871E-01
   0.12821E+03   0.15448E-01   0.15538E-01   0.15448E-01   0.15538E-01
   0.12884E+03   0.14873E-01   0.14955E-01   0.14873E-01   0.14955E-01
   0.12948E+03   0.14338E-01   0.14416E-01   0.14338E-01   0.14416E-01
   0.13011E+03   0.14081E-01   0.14161E-01   0.14081E-01   0.14161E-01
   0.13075E+03   0.14144E-01   0.14230E-01   0.14144E-01   0.14230E-01
   0.13138E+03   0.14403E-01   0.14494E-01   0.14403E-01   0.14494E-01
   0.13201E+03   0.14655E-01   0.14748E-01   0.14655E-01   0.14748E-01
   0.13265E+03   0.14706E-01   0.14795E-01   0.14706E-01   0.14795E-01
   0.13328E+03   0.14495E-01   0.14575E-01   0.14495E-01   0.14575E-01
   0.13392E+03   0.14164E-01   0.14235E-01   0.14164E-01   0.14235E-01
   0.13455E+03   0.14003E-01   0.14071E-01   0.14003E-01   0.14071E-01
   0.13519E+03   0.14196E-01   0.14268E-01   0.14196E-01   0.14268E-01
   0.13582E+03   0.14622E-01   0.14700E-01   0.14622E-01   0.14700E-01
   0.13646E+03   0.14935E-01   0.15018E-01   0.14935E-01   0.15018E-01
   0.13709E+03   0.14875E-01   0.14958E-01   0.14875E-01   0.14958E-01
   0.13773E+03   0.14456E-01   0.14535E-01   0.14456E-01   0.14535E-01
   0.13836E+03   0.13940E-01   0.14016E-01   0.13940E-01   0.14016E-01
   0.13900E+03   0.13667E-01   0.13746E-01   0.13667E-01   0.13746E-01
   0.13963E+03   0.13835E-01   0.13923E-01   0.13835E-01   0.13923E-01
   0.14027E+03   0.14262E-01   0.14358E-01   0.14262E-01   0.14358E-01
   0.14090E+03   0.14472E-01   0.14568E-01   0.14472E-01   0.14568E-01
   0.14153E+03   0.14224E-01   0.14314E-01   0.14224E-01   0.14314E-01
   0.14217E+03   0.13860E-01   0.13944E-01   0.13860E-01   0.13944E-01
   0.14280E+03   0.13922E-01   0.14008E-01   0.13922E-01   0.14008E-01
   0.14344E+03   0.14545E-01   0.14640E-01   0.14545E-01   0.14640E-01
   0.14407E+03   0.15286E-01   0.15388E-01   0.15286E-01   0.15388E-01
   0.14471E+03   0.15497E-01   0.15596E-01   0.15497E-01   0.15596E-01
   0.14534E+03   0.15105E-01   0.15196E-01   0.15105E-01   0.15196E-01
   0.14598E+03   0.14852E-01   0.14949E-01   0.14852E-01   0.14949E-01
   0.14661E+03   0.15284E-01   0.15397E-01   0.15284E-01   0.15397E-01
   0.14725E+03   0.15961E-01   0.16086E-01   0.15961E-01   0.16086E-01
   0.14788E+03   0.16778E-01   0.16902E-01   0.16778E-01   0.16902E-01
   0.14852E+03   0.14676E-01   0.14787E-01   0.14676E-01   0.14787E-01
   0.14915E+03   0.15000E-01   0.15131E-01   0.15000E-01   0.15131E-01
   0.14979E+03   0.15653E-01   0.15798E-01   0.15653E-01   0.15798E-01
   0.15042E+03   0.15554E-01   0.15692E-01   0.15554E-01   0.15692E-01
   0.15106E+03   0.15346E-01   0.15496E-01   0.15346E-01   0.15496E-01
   0.15169E+03   0.16122E-01   0.16296E-01   0.16122E-01   0.16296E-01
   0.15232E+03   0.16426E-01   0.16589E-01   0.16426E-01   0.16589E-01
   0.15296E+03   0.16841E-01   0.17026E-01   0.16841E-01   0.17026E-01
   0.15359E+03   0.17434E-01   0.17632E-01   0.17434E-01   0.17632E-01
   0.15423E+03   0.18290E-01   0.18497E-01   0.18290E-01   0.18497E-01
   0.15486E+03   0.18440E-01   0.18666E-01   0.18440E-01   0.18666E-01
   0.15550E+03   0.20161E-01   0.20427E-01   0.20161E-01   0.20427E-01
   0.15613E+03   0.19844E-01   0.20124E-01   0.19844E-01   0.20124E-01
   0.15677E+03   0.20973E-01   0.21293E-01   0.20973E-01   0.21293E-01
   0.15740E+03   0.17126E-01   0.17275E-01   0.17126E-01   0.17275E-01
   0.15804E+03   0.97443E-02   0.97402E-02   0.97443E-02   0.97402E-02
   0.15867E+03   0.49286E-02   0.49050E-02   0.49286E-02   0.49050E-02
   0.15931E+03   0.47452E-02   0.47227E-02   0.47452E-02   0.47227E-02
   0.15994E+03   0.46649E-02   0.46430E-02   0.46649E-02   0.46430E-02
   0.16058E+03   0.46565E-02   0.46346E-02   0.46565E-02   0.46346E-02
   0.16121E+03   0.47092E-02   0.46867E-02   0.47092E-02   0.46867E-02
   0.16184E+03   0.48090E-02   0.47852E-02   0.48090E-02   0.47852E-02
   0.16248E+03   0.49331E-02   0.49078E-02   0.49331E-02   0.49078E-02
   0.16311E+03   0.50582E-02   0.50313E-02   0.50582E-02   0.50313E-02
   0.16375E+03   0.51666E-02   0.51382E-02   0.51666E-02   0.51382E-02
   0.16438E+03   0.52325E-02   0.52030E-02   0.52325E-02   0.52030E-02
   0.16502E+03   0.52445E-02   0.52145E-02   0.52445E-02   0.52145E-02
   0.16565E+03   0.51994E-02   0.51697E-02   0.51994E-02   0.51697E-02
   0.16629E+03   0.51103E-02   0.50816E-02   0.51103E-02   0.50816E-02
   0.16692E+03   0.50031E-02   0.49758E-02   0.50031E-02   0.49758E-02
   0.16756E+03   0.49062E-02   0.48804E-02   0.49062E-02   0.48804E-02
   0.16819E+03   0.48442E-02   0.48198E-02   0.48442E-02   0.48198E-02
   0.16883E+03   0.48216E-02   0.47982E-02   0.48216E-02   0.47982E-02
   0.16946E+03   0.48273E-02   0.48043E-02   0.48273E-02   0.48043E-02
   0.17010E+03   0.48362E-02   0.48135E-02   0.48362E-02   0.48135E-02
   0.17073E+03   0.48250E-02   0.48024E-02   0.48250E-02   0.48024E-02
   0.17137E+03   0.47915E-02   0.47688E-02   0.47915E-02   0.47688E-02
   0.17200E+03   0.47523E-02   0.47293E-02   0.47523E-02   0.47293E-02
   0.17263E+03   0.47329E-02   0.47093E-02   0.47329E-02   0.47093E-02
   0.17327E+03   0.47476E-02   0.47230E-02   0.47476E-02   0.47230E-02
   0.17390E+03   0.47963E-02   0.47707E-02   0.47963E-02   0.47707E-02
   0.17454E+03   0.48627E-02   0.48365E-02   0.48627E-02   0.48365E-02
   0.17517E+03   0.49321E-02   0.49060E-02   0.49321E-02   0.49060E-02
   0.17581E+03   0.49904E-02   0.49650E-02   0.49904E-02   0.49650E-02
   0.17644E+03   0.50183E-02   0.49943E-02   0.50183E-02   0.49943E-02
   0.17708E+03   0.49930E-02   0.49710E-02   0.49930E-02   0.49710E-02
   0.17771E+03   0.49019E-02   0.48826E-02   0.49019E-02   0.48826E-02
   0.17835E+03   0.47535E-02   0.47371E-02   0.47535E-02   0.47371E-02
   0.17898E+03   0.46049E-02   0.45904E-02   0.46049E-02   0.45904E-02
   0.17962E+03   0.45436E-02   0.45293E-02   0.45436E-02   0.45293E-02
   0.18025E+03   0.46343E-02   0.46176E-02   0.46343E-02   0.46176E-02
   0.18089E+03   0.48373E-02   0.48167E-02   0.48373E-02   0.48167E-02
   0.18152E+03   0.49928E-02   0.49698E-02   0.49928E-02   0.49698E-02
   0.18215E+03   0.49450E-02   0.49236E-02   0.49450E-02   0.49236E-02
   0.18279E+03   0.46925E-02   0.46769E-02   0.46925E-02   0.46769E-02
   0.18342E+03   0.43784E-02   0.43701E-02   0.43784E-02   0.43701E-02
   0.18406E+03   0.41326E-02   0.41306E-02   0.41326E-02   0.41306E-02
   0.18469E+03   0.63190E-02   0.62855E-02   0.63190E-02   0.62855E-02
   0.18533E+03   0.39067E-02   0.39119E-02   0.39067E-02   0.39119E-02
   0.18596E+03   0.38119E-02   0.38191E-02   0.38119E-02   0.38191E-02
   0.18660E+03   0.37327E-02   0.37412E-02   0.37327E-02   0.37412E-02
   0.18723E+03   0.36592E-02   0.36684E-02   0.36592E-02   0.36684E-02
   0.18787E+03   0.36110E-02   0.36207E-02   0.36110E-02   0.36207E-02
   0.18850E+03   0.36072E-02   0.36171E-02   0.36072E-02   0.36171E-02
   0.18914E+03   0.36532E-02   0.36630E-02   0.36532E-02   0.36630E-02
   0.18977E+03   0.37455E-02   0.37553E-02   0.37455E-02   0.37553E-02
   0.19041E+03   0.38682E-02   0.38777E-02   0.38682E-02   0.38777E-02
   0.19104E+03   0.39991E-02   0.40085E-02   0.39991E-02   0.40085E-02
   0.19168E+03   0.41173E-02   0.41267E-02   0.41173E-02   0.41267E-02
   0.19231E+03   0.42065E-02   0.42161E-02   0.42065E-02   0.42161E-02
   0.19294E+03   0.42580E-02   0.42681E-02   0.42580E-02   0.42681E-02
   0.19358E+03   0.42704E-02   0.42810E-02   0.42704E-02   0.42810E-02
   0.19421E+03   0.42519E-02   0.42631E-02   0.42519E-02   0.42631E-02
   0.19485E+03   0.42192E-02   0.42309E-02   0.42192E-02   0.42309E-02
   0.19548E+03   0.42032E-02   0.42150E-02   0.42032E-02   0.42150E-02
   0.19612E+03   0.42385E-02   0.42497E-02   0.42385E-02   0.42497E-02
   0.19675E+03   0.43508E-02   0.43611E-02   0.43508E-02   0.43611E-02
   0.19739E+03   0.45310E-02   0.45400E-02   0.45310E-02   0.45400E-02
   0.19802E+03   0.47285E-02   0.47366E-02   0.47285E-02   0.47366E-02
   0.19866E+03   0.48712E-02   0.48792E-02   0.48712E-02   0.48792E-02
   0.19929E+03   0.49104E-02   0.49193E-02   0.49104E-02   0.49193E-02
   0.19993E+03   0.48592E-02   0.48694E-02   0.48592E-02   0.48694E-02
   0.20056E+03   0.47878E-02   0.47986E-02   0.47878E-02   0.47986E-02
   0.20120E+03   0.47799E-02   0.47898E-02   0.47799E-02   0.47898E-02
   0.20183E+03   0.48812E-02   0.48885E-02   0.48812E-02   0.48885E-02
   0.20246E+03   0.50730E-02   0.50769E-02   0.50730E-02   0.50769E-02
   0.20310E+03   0.52773E-02   0.52783E-02   0.52773E-02   0.52783E-02
   0.20373E+03   0.54190E-02   0.54185E-02   0.54190E-02   0.54185E-02
   0.20437E+03   0.54692E-02   0.54686E-02   0.54692E-02   0.54686E-02
   0.20500E+03   0.54646E-02   0.54641E-02   0.54646E-02   0.54641E-02
   0.20564E+03   0.54581E-02   0.54569E-02   0.54581E-02   0.54569E-02
   0.20627E+03   0.54971E-02   0.54930E-02   0.54971E-02   0.54930E-02
   0.20691E+03   0.56108E-02   0.56009E-02   0.56108E-02   0.56009E-02
   0.20754E+03   0.58035E-02   0.57850E-02   0.58035E-02   0.57850E-02
   0.20818E+03   0.60152E-02   0.59882E-02   0.60152E-02   0.59882E-02
   0.20881E+03   0.61343E-02   0.61023E-02   0.61343E-02   0.61023E-02
   0.20945E+03   0.60982E-02   0.60659E-02   0.60982E-02   0.60659E-02
   0.21008E+03   0.60041E-02   0.59710E-02   0.60041E-02   0.59710E-02
   0.21072E+03   0.60361E-02   0.59940E-02   0.60361E-02   0.59940E-02
   0.21135E+03   0.62763E-02   0.62147E-02   0.62763E-02   0.62147E-02
   0.21199E+03   0.65998E-02   0.65160E-02   0.65998E-02   0.65160E-02
   0.21262E+03   0.68012E-02   0.67024E-02   0.68012E-02   0.67024E-02
   0.21325E+03   0.68326E-02   0.67245E-02   0.68326E-02   0.67245E-02
   0.21389E+03   0.68269E-02   0.67010E-02   0.68269E-02   0.67010E-02
   0.21452E+03   0.69313E-02   0.67636E-02   0.69313E-02   0.67636E-02
   0.21516E+03   0.72157E-02   0.69700E-02   0.72157E-02   0.69700E-02
   0.21579E+03   0.76325E-02   0.72785E-02   0.76325E-02   0.72785E-02
   0.21643E+03   0.78974E-02   0.74572E-02   0.78974E-02   0.74572E-02
   0.21706E+03   0.76346E-02   0.72033E-02   0.76346E-02   0.72033E-02
   0.21770E+03   0.69061E-02   0.65777E-02   0.69061E-02   0.65777E-02
   0.21833E+03   0.62474E-02   0.60287E-02   0.62474E-02   0.60287E-02
   0.21897E+03   0.69408E-02   0.59153E-02   0.69408E-02   0.59153E-02
   0.21960E+03   0.79245E-02   0.64213E-02   0.79245E-02   0.64213E-02
   0.22024E+03   0.68598E-02   0.96550E-02   0.68598E-02   0.96550E-02
   0.22087E+03   0.69401E-02   0.68298E-02   0.69401E-02   0.68298E-02
   0.22151E+03   0.66542E-02   0.65131E-02   0.66542E-02   0.65131E-02
   0.22214E+03   0.63027E-02   0.62709E-02   0.63027E-02   0.62709E-02
   0.22277E+03   0.60613E-02   0.61237E-02   0.60613E-02   0.61237E-02
   0.22341E+03   0.59127E-02   0.60582E-02   0.59127E-02   0.60582E-02
   0.22404E+03   0.58035E-02   0.60293E-02   0.58035E-02   0.60293E-02
   0.22468E+03   0.57493E-02   0.60551E-02   0.57493E-02   0.60551E-02
   0.22531E+03   0.58023E-02   0.61904E-02   0.58023E-02   0.61904E-02
   0.22595E+03   0.59872E-02   0.64521E-02   0.59872E-02   0.64521E-02
   0.22658E+03   0.61955E-02   0.66978E-02   0.61955E-02   0.66978E-02
   0.22722E+03   0.62780E-02   0.67413E-02   0.62780E-02   0.67413E-02
   0.22785E+03   0.62340E-02   0.65942E-02   0.62340E-02   0.65942E-02
   0.22849E+03   0.61848E-02   0.64388E-02   0.61848E-02   0.64388E-02
   0.22912E+03   0.61807E-02   0.63752E-02   0.61807E-02   0.63752E-02
   0.22976E+03   0.61799E-02   0.63682E-02   0.61799E-02   0.63682E-02
   0.23039E+03   0.61667E-02   0.63830E-02   0.61667E-02   0.63830E-02
   0.23103E+03   0.61707E-02   0.64283E-02   0.61707E-02   0.64283E-02
   0.23166E+03   0.62221E-02   0.65221E-02   0.62221E-02   0.65221E-02
   0.23230E+03   0.63403E-02   0.66820E-02   0.63403E-02   0.66820E-02
   0.23293E+03   0.64989E-02   0.68833E-02   0.64989E-02   0.68833E-02
   0.23356E+03   0.65842E-02   0.70069E-02   0.65842E-02   0.70069E-02
   0.23420E+03   0.97061E-02   0.10201E-01   0.97061E-02   0.10201E-01
   0.23483E+03   0.12900E-01   0.13460E-01   0.12900E-01   0.13460E-01
   0.23547E+03   0.10118E-01   0.10658E-01   0.10118E-01   0.10658E-01
   0.23610E+03   0.11094E-01   0.11703E-01   0.11094E-01   0.11703E-01
   0.23674E+03   0.12605E-01   0.13269E-01   0.12605E-01   0.13269E-01
   0.23737E+03   0.11470E-01   0.12032E-01   0.11470E-01   0.12032E-01
   0.23801E+03   0.11623E-01   0.11984E-01   0.11623E-01   0.11984E-01
   0.23864E+03   0.13541E-01   0.13685E-01   0.13541E-01   0.13685E-01
   0.23928E+03   0.14132E-01   0.14096E-01   0.14132E-01   0.14096E-01
   0.23991E+03   0.13413E-01   0.13311E-01   0.13413E-01   0.13311E-01
   0.24055E+03   0.13124E-01   0.13123E-01   0.13124E-01   0.13123E-01
   0.24118E+03   0.13620E-01   0.13852E-01   0.13620E-01   0.13852E-01
   0.24182E+03   0.14224E-01   0.14845E-01   0.14224E-01   0.14845E-01
   0.24245E+03   0.14291E-01   0.15473E-01   0.14291E-01   0.15473E-01
   0.24308E+03   0.13538E-01   0.14675E-01   0.13538E-01   0.14675E-01
   0.24372E+03   0.12512E-01   0.12940E-01   0.12512E-01   0.12940E-01
   0.24435E+03   0.13187E-01   0.13291E-01   0.13187E-01   0.13291E-01
   0.24499E+03   0.16370E-01   0.16369E-01   0.16370E-01   0.16369E-01
   0.24562E+03   0.16402E-01   0.15442E-01   0.16402E-01   0.15442E-01
   0.24626E+03   0.15725E-01   0.15205E-01   0.15725E-01   0.15205E-01
   0.24689E+03   0.17601E-01   0.15864E-01   0.17601E-01   0.15864E-01
   0.24753E+03   0.17270E-01   0.16613E-01   0.17270E-01   0.16613E-01
   0.24816E+03   0.16116E-01   0.15915E-01   0.16116E-01   0.15915E-01
   0.24880E+03   0.16864E-01   0.16696E-01   0.16864E-01   0.16696E-01
   0.24943E+03   0.18662E-01   0.18516E-01   0.18662E-01   0.18516E-01
   0.25007E+03   0.20248E-01   0.20118E-01   0.20248E-01   0.20118E-01
   0.25070E+03   0.20138E-01   0.19993E-01   0.20138E-01   0.19993E-01
   0.25134E+03   0.19312E-01   0.19132E-01   0.19312E-01   0.19132E-01
   0.25197E+03   0.20429E-01   0.20207E-01   0.20429E-01   0.20207E-01
   0.25260E+03   0.21160E-01   0.20891E-01   0.21160E-01   0.20891E-01
   0.25324E+03   0.25093E-01   0.24903E-01   0.25093E-01   0.24903E-01
   0.25387E+03   0.32226E-01   0.32156E-01   0.32226E-01   0.32156E-01
   0.25451E+03   0.28809E-01   0.28728E-01   0.28809E-01   0.28728E-01
   0.25514E+03   0.23492E-01   0.23416E-01   0.23492E-01   0.23416E-01
   0.25578E+03   0.23977E-01   0.23933E-01   0.23977E-01   0.23933E-01
   0.25641E+03   0.20228E-01   0.20170E-01   0.20228E-01   0.20170E-01
   0.25705E+03   0.20837E-01   0.20768E-01   0.20837E-01   0.20768E-01
   0.25768E+03   0.23318E-01   0.23237E-01   0.23318E-01   0.23237E-01
   0.25832E+03   0.21445E-01   0.21359E-01   0.21445E-01   0.21359E-01
   0.25895E+03   0.17110E-01   0.17033E-01   0.17110E-01   0.17033E-01
   0.25959E+03   0.15923E-01   0.15845E-01   0.15923E-01   0.15845E-01
   0.26022E+03   0.18119E-01   0.18014E-01   0.18119E-01   0.18014E-01
   0.26086E+03   0.19952E-01   0.19819E-01   0.19952E-01   0.19819E-01
   0.26149E+03   0.18704E-01   0.18576E-01   0.18704E-01   0.18576E-01
   0.26213E+03   0.16649E-01   0.16552E-01   0.16649E-01   0.16552E-01
   0.26276E+03   0.16602E-01   0.16529E-01   0.16602E-01   0.16529E-01
   0.26339E+03   0.18906E-01   0.18829E-01   0.18906E-01   0.18829E-01
   0.26403E+03   0.20271E-01   0.20184E-01   0.20271E-01   0.20184E-01
   0.26466E+03   0.19028E-01   0.18952E-01   0.19028E-01   0.18952E-01
   0.26530E+03   0.16739E-01   0.16683E-01   0.16739E-01   0.16683E-01
   0.26593E+03   0.16583E-01   0.16523E-01   0.16583E-01   0.16523E-01
   0.26657E+03   0.18014E-01   0.17927E-01   0.18014E-01   0.17927E-01
   0.26720E+03   0.18137E-01   0.18034E-01   0.18137E-01   0.18034E-01
   0.26784E+03   0.16304E-01   0.16216E-01   0.16304E-01   0.16216E-01