 128  128
1 1
    15.915409524309149     0.000000000000000     0.000000000000000
     0.000000000000001    15.915409524309149     0.000000000000000
     0.000000000000001     0.000000000000000    15.915409524309151
1 2
     0.487956004920524     0.203510281372956     0.203510281372956
    -0.203520711197979    -0.214499427859376    -0.223215933151063
    -0.203520711197979    -0.223215933151063    -0.214499427859376
1 3
     0.073481829594125     0.000000000000000     0.000000000000000
     0.000000000000000    -0.004362848839921    -0.055586724729246
     0.000000000000000    -0.055586724729246    -0.004362848839921
1 4
     0.487956004920524    -0.203510281372956    -0.203510281372956
     0.203520711197979    -0.214499427859376    -0.223215933151063
     0.203520711197979    -0.223215933151063    -0.214499427859376
1 5
    -0.214499427859376    -0.203520711197979    -0.223215933151063
     0.203510281372956     0.487956004920524     0.203510281372956
    -0.223215933151063    -0.203520711197979    -0.214499427859376
1 6
    -0.011177590443606     0.031907132840871    -0.019827274144471
     0.031907132840871    -0.011177590443606    -0.019827274144471
    -0.007392094290524    -0.007392094290524    -0.009918586819704
1 7
    -0.011177590443606     0.019827274144471    -0.031907132840871
     0.007392094290524    -0.009918586819704    -0.007392094290524
    -0.031907132840871    -0.019827274144471    -0.011177590443606
1 8
    -0.214499427859376     0.223215933151063     0.203520711197979
     0.223215933151063    -0.214499427859376    -0.203520711197978
    -0.203510281372956     0.203510281372956     0.487956004920524
1 9
    -0.004362848839921     0.000000000000000    -0.055586724729246
    -0.000000000000000     0.073481829594125    -0.000000000000000
    -0.055586724729246     0.000000000000000    -0.004362848839921
1 10
    -0.009918586819704     0.007392094290524    -0.007392094290524
     0.019827274144471    -0.011177590443606    -0.031907132840871
    -0.019827274144471    -0.031907132840871    -0.011177590443606
1 11
    -0.004362848839921     0.055586724729246    -0.000000000000000
     0.055586724729246    -0.004362848839921     0.000000000000000
     0.000000000000000     0.000000000000000     0.073481829594125
1 12
    -0.009912222858673     0.019817197872839    -0.019817197872839
     0.007387144543056    -0.011170165822404    -0.031910845151472
    -0.007387144543056    -0.031910845151472    -0.011170165822404
1 13
    -0.214499427859376     0.203520711197979    -0.223215933151063
    -0.203510281372956     0.487956004920524    -0.203510281372956
    -0.223215933151063     0.203520711197979    -0.214499427859376
1 14
    -0.214499427859376     0.223215933151063    -0.203520711197978
     0.223215933151063    -0.214499427859376     0.203520711197979
     0.203510281372956    -0.203510281372956     0.487956004920524
1 15
    -0.011170165822404     0.007387144543056    -0.031910845151472
     0.019817197872839    -0.009912222858673    -0.019817197872839
    -0.031910845151472    -0.007387144543056    -0.011170165822404
1 16
    -0.011170165822404     0.031910845151472    -0.007387144543056
     0.031910845151472    -0.011170165822404    -0.007387144543056
    -0.019817197872839    -0.019817197872839    -0.009912222858673
1 17
    -0.214499427859376    -0.223215933151063    -0.203520711197979
    -0.223215933151063    -0.214499427859376    -0.203520711197979
     0.203510281372956     0.203510281372956     0.487956004920524
1 18
    -0.011177590443606    -0.019827274144471     0.031907132840871
    -0.007392094290524    -0.009918586819704    -0.007392094290524
     0.031907132840871    -0.019827274144471    -0.011177590443606
1 19
    -0.011177590443606    -0.031907132840871     0.019827274144471
    -0.031907132840871    -0.011177590443606    -0.019827274144471
     0.007392094290524    -0.007392094290524    -0.009918586819704
1 20
    -0.214499427859376     0.203520711197979     0.223215933151063
    -0.203510281372956     0.487956004920524     0.203510281372956
     0.223215933151063    -0.203520711197979    -0.214499427859376
1 21
    -0.009918586819704    -0.007392094290524    -0.007392094290524
    -0.019827274144471    -0.011177590443606     0.031907132840871
    -0.019827274144471     0.031907132840871    -0.011177590443606
1 22
    -0.051449089399133    -0.000000000000000    -0.000000000000000
    -0.000000000000000    -0.051449089399133    -0.000000000000000
    -0.000000000000000    -0.000000000000000    -0.051449089399133
1 23
    -0.009918586819704     0.007392094290524     0.007392094290524
     0.019827274144471    -0.011177590443606     0.031907132840871
     0.019827274144471     0.031907132840871    -0.011177590443606
1 24
    -0.029905667096723    -0.000000000000000    -0.000000000000000
    -0.000000000000000    -0.007296634875064     0.000007424621202
    -0.000000000000000     0.000007424621202    -0.007296634875064
1 25
    -0.011177590443606    -0.031907132840871    -0.019827274144471
    -0.031907132840871    -0.011177590443606     0.019827274144471
    -0.007392094290524     0.007392094290524    -0.009918586819704
1 26
    -0.011177590443606     0.019827274144471     0.031907132840871
     0.007392094290524    -0.009918586819704     0.007392094290524
     0.031907132840871     0.019827274144471    -0.011177590443606
1 27
    -0.006738727624708    -0.001981489977580     0.002012779452648
    -0.001981489977580    -0.006738727624708     0.002012779452648
    -0.002011895569171    -0.002011895569171    -0.010078039398861
1 28
    -0.006738727624708    -0.002012779452648     0.001981489977580
     0.002011895569171    -0.010078039398861    -0.002011895569171
     0.001981489977580     0.002012779452648    -0.006738727624708
1 29
     0.487956004920524    -0.203510281372956     0.203510281372956
     0.203520711197979    -0.214499427859376     0.223215933151063
    -0.203520711197978     0.223215933151063    -0.214499427859376
1 30
    -0.007296634875064    -0.000000000000000     0.000007424621202
    -0.000000000000000    -0.029905667096723     0.000000000000000
     0.000007424621202    -0.000000000000000    -0.007296634875064
1 31
    -0.010078039398861     0.002011895569171    -0.002011895569171
    -0.002012779452648    -0.006738727624708     0.001981489977580
     0.002012779452648     0.001981489977580    -0.006738727624708
1 32
    -0.007296634875064    -0.000007424621202     0.000000000000000
    -0.000007424621202    -0.007296634875064    -0.000000000000000
     0.000000000000000     0.000000000000000    -0.029905667096723
1 33
    -0.004362848839921    -0.055586724729246    -0.000000000000000
    -0.055586724729246    -0.004362848839921     0.000000000000000
    -0.000000000000000    -0.000000000000000     0.073481829594125
1 34
    -0.009918586819704    -0.007392094290524     0.007392094290524
    -0.019827274144471    -0.011177590443606    -0.031907132840871
     0.019827274144471    -0.031907132840871    -0.011177590443606
1 35
    -0.004362848839921    -0.000000000000000     0.055586724729246
     0.000000000000000     0.073481829594125     0.000000000000000
     0.055586724729246     0.000000000000000    -0.004362848839921
1 36
    -0.009912222858673    -0.019817197872839     0.019817197872839
    -0.007387144543056    -0.011170165822404    -0.031910845151472
     0.007387144543056    -0.031910845151472    -0.011170165822404
1 37
    -0.011177590443606    -0.019827274144471    -0.031907132840871
    -0.007392094290524    -0.009918586819704     0.007392094290524
    -0.031907132840871     0.019827274144471    -0.011177590443606
1 38
    -0.011177590443606     0.031907132840871     0.019827274144471
     0.031907132840871    -0.011177590443606     0.019827274144471
     0.007392094290524     0.007392094290524    -0.009918586819704
1 39
    -0.006738727624708     0.002012779452648    -0.001981489977580
    -0.002011895569171    -0.010078039398861    -0.002011895569171
    -0.001981489977580     0.002012779452648    -0.006738727624708
1 40
    -0.006738727624708     0.001981489977580    -0.002012779452648
     0.001981489977580    -0.006738727624708     0.002012779452648
     0.002011895569171    -0.002011895569171    -0.010078039398861
1 41
     0.073481829594125    -0.000000000000000     0.000000000000000
     0.000000000000000    -0.004362848839921     0.055586724729246
     0.000000000000000     0.055586724729246    -0.004362848839921
1 42
    -0.010078039398861    -0.002011895569171    -0.002011895569171
     0.002012779452648    -0.006738727624708    -0.001981489977580
     0.002012779452648    -0.001981489977580    -0.006738727624708
1 43
    -0.041303521302668    -0.000000000000000    -0.000000000000000
    -0.000000000000000    -0.041303521302668    -0.000000000000000
    -0.000000000000000    -0.000000000000000    -0.041303521302668
1 44
    -0.010078039398861     0.002011895569171     0.002011895569171
    -0.002012779452648    -0.006738727624708    -0.001981489977580
    -0.002012779452648    -0.001981489977580    -0.006738727624708
1 45
    -0.011170165822404    -0.007387144543056    -0.031910845151472
    -0.019817197872839    -0.009912222858673     0.019817197872839
    -0.031910845151472     0.007387144543056    -0.011170165822404
1 46
    -0.006738727624708     0.001981489977580     0.002012779452648
     0.001981489977580    -0.006738727624708    -0.002012779452648
    -0.002011895569171     0.002011895569171    -0.010078039398861
1 47
    -0.006738727624708    -0.002012779452648    -0.001981489977580
     0.002011895569171    -0.010078039398861     0.002011895569171
    -0.001981489977580    -0.002012779452648    -0.006738727624708
1 48
    -0.011170165822404     0.031910845151472     0.007387144543056
     0.031910845151472    -0.011170165822404     0.007387144543056
     0.019817197872839     0.019817197872839    -0.009912222858673
1 49
    -0.214499427859376    -0.223215933151063     0.203520711197979
    -0.223215933151063    -0.214499427859376     0.203520711197979
    -0.203510281372956    -0.203510281372956     0.487956004920524
1 50
    -0.214499427859376    -0.203520711197979     0.223215933151063
     0.203510281372956     0.487956004920524    -0.203510281372956
     0.223215933151063     0.203520711197979    -0.214499427859376
1 51
    -0.011170165822404    -0.031910845151472     0.007387144543056
    -0.031910845151472    -0.011170165822404    -0.007387144543056
     0.019817197872839    -0.019817197872839    -0.009912222858673
1 52
    -0.011170165822404    -0.007387144543056     0.031910845151472
    -0.019817197872839    -0.009912222858673    -0.019817197872839
     0.031910845151472    -0.007387144543056    -0.011170165822404
1 53
     0.487956004920524     0.203510281372956    -0.203510281372956
    -0.203520711197978    -0.214499427859376     0.223215933151063
     0.203520711197979     0.223215933151063    -0.214499427859376
1 54
    -0.007296634875064     0.000007424621202     0.000000000000000
     0.000007424621202    -0.007296634875064    -0.000000000000000
     0.000000000000000     0.000000000000000    -0.029905667096723
1 55
    -0.010078039398861    -0.002011895569171     0.002011895569171
     0.002012779452648    -0.006738727624708     0.001981489977580
    -0.002012779452648     0.001981489977580    -0.006738727624708
1 56
    -0.007296634875064    -0.000000000000000    -0.000007424621202
    -0.000000000000000    -0.029905667096723     0.000000000000000
    -0.000007424621202    -0.000000000000000    -0.007296634875064
1 57
    -0.011170165822404    -0.031910845151472    -0.007387144543056
    -0.031910845151472    -0.011170165822404     0.007387144543056
    -0.019817197872839     0.019817197872839    -0.009912222858673
1 58
    -0.006738727624708     0.002012779452648     0.001981489977580
    -0.002011895569171    -0.010078039398861     0.002011895569171
     0.001981489977580    -0.002012779452648    -0.006738727624708
1 59
    -0.006738727624708    -0.001981489977580    -0.002012779452648
    -0.001981489977580    -0.006738727624708    -0.002012779452648
     0.002011895569171     0.002011895569171    -0.010078039398861
1 60
    -0.011170165822404     0.007387144543056     0.031910845151472
     0.019817197872839    -0.009912222858673     0.019817197872839
     0.031910845151472     0.007387144543056    -0.011170165822404
1 61
    -0.009912222858673    -0.019817197872839    -0.019817197872839
    -0.007387144543056    -0.011170165822404     0.031910845151472
    -0.007387144543056     0.031910845151472    -0.011170165822404
1 62
    -0.029905667096723    -0.000000000000000    -0.000000000000000
    -0.000000000000000    -0.007296634875064    -0.000007424621202
    -0.000000000000000    -0.000007424621202    -0.007296634875064
1 63
    -0.009912222858673     0.019817197872839     0.019817197872839
     0.007387144543056    -0.011170165822404     0.031910845151472
     0.007387144543056     0.031910845151472    -0.011170165822404
1 64
    -0.051449089399133    -0.000000000000000    -0.000000000000000
    -0.000000000000000    -0.051449089399133    -0.000000000000000
    -0.000000000000000    -0.000000000000000    -0.051449089399133
1 65
    -3.955048691948813    -2.001561380340672    -2.001561380340672
    -2.001561380340672    -3.955048691948813    -2.001561380340672
    -2.001561380340672    -2.001561380340672    -3.955048691948814
1 66
    -0.140489743053096     0.048477296374501     0.048477296374501
     0.074672597413643    -0.026743132017866    -0.016449248274047
     0.074672597413643    -0.016449248274047    -0.026743132017866
1 67
    -0.140489743053096    -0.048477296374501    -0.048477296374501
    -0.074672597413643    -0.026743132017866    -0.016449248274047
    -0.074672597413643    -0.016449248274047    -0.026743132017866
1 68
    -3.955048691948813     2.001561380340672     2.001561380340672
     2.001561380340672    -3.955048691948813    -2.001561380340672
     2.001561380340672    -2.001561380340672    -3.955048691948814
1 69
    -0.026743132017866     0.074672597413643    -0.016449248274047
     0.048477296374501    -0.140489743053096     0.048477296374501
    -0.016449248274047     0.074672597413643    -0.026743132017866
1 70
     0.013138751101227    -0.020341694327784     0.020341694327784
    -0.020341694327784     0.013138751101227     0.020341694327784
     0.020341694327784     0.020341694327784     0.013138751101227
1 71
    -0.026743132017866     0.016449248274047    -0.074672597413643
     0.016449248274047    -0.026743132017866     0.074672597413643
    -0.048477296374501     0.048477296374501    -0.140489743053096
1 72
     0.036695659963066    -0.043627250962343     0.043627250962343
    -0.058265421993076     0.035890088562600     0.057743400411865
     0.058265421993076     0.057743400411865     0.035890088562600
1 73
    -0.026743132017866    -0.074672597413643    -0.016449248274047
    -0.048477296374501    -0.140489743053096    -0.048477296374501
    -0.016449248274047    -0.074672597413643    -0.026743132017866
1 74
    -0.026743132017866     0.016449248274047     0.074672597413643
     0.016449248274047    -0.026743132017866    -0.074672597413643
     0.048477296374501    -0.048477296374501    -0.140489743053096
1 75
    -0.002798905416632    -0.021472888400987     0.013765424486054
    -0.021472888400987    -0.002798905416632     0.013765424486054
     0.020968190935915     0.020968190935915     0.012510486726143
1 76
    -0.002798905416632    -0.013765424486054     0.021472888400987
    -0.020968190935915     0.012510486726143     0.020968190935915
     0.021472888400987     0.013765424486054    -0.002798905416632
1 77
    -3.955048691948813     2.001561380340672    -2.001561380340671
     2.001561380340672    -3.955048691948813     2.001561380340672
    -2.001561380340672     2.001561380340672    -3.955048691948814
1 78
     0.035890088562600    -0.058265421993076     0.057743400411865
    -0.043627250962343     0.036695659963066     0.043627250962343
     0.057743400411865     0.058265421993076     0.035890088562600
1 79
     0.012510486726143    -0.020968190935915     0.020968190935915
    -0.013765424486054    -0.002798905416632     0.021472888400987
     0.013765424486054     0.021472888400987    -0.002798905416632
1 80
     0.035890088562600    -0.057743400411865     0.058265421993076
    -0.057743400411865     0.035890088562600     0.058265421993076
     0.043627250962343     0.043627250962343     0.036695659963066
1 81
    -0.026743132017866    -0.016449248274047     0.074672597413643
    -0.016449248274047    -0.026743132017866     0.074672597413643
     0.048477296374501     0.048477296374501    -0.140489743053096
1 82
     0.013138751101227     0.020341694327784    -0.020341694327784
     0.020341694327784     0.013138751101227     0.020341694327784
    -0.020341694327784     0.020341694327784     0.013138751101227
1 83
    -0.026743132017866    -0.074672597413643     0.016449248274047
    -0.048477296374501    -0.140489743053096     0.048477296374501
     0.016449248274047     0.074672597413643    -0.026743132017866
1 84
     0.036695659963066     0.043627250962343    -0.043627250962343
     0.058265421993076     0.035890088562600     0.057743400411865
    -0.058265421993076     0.057743400411865     0.035890088562600
1 85
     0.013138751101227     0.020341694327784     0.020341694327784
     0.020341694327784     0.013138751101227    -0.020341694327784
     0.020341694327784    -0.020341694327784     0.013138751101227
1 86
     0.013138751101227    -0.020341694327784    -0.020341694327784
    -0.020341694327784     0.013138751101227    -0.020341694327784
    -0.020341694327784    -0.020341694327784     0.013138751101227
1 87
     0.022705198743900    -0.001286050458283    -0.001286050458283
     0.002219961739535     0.003088112090137     0.009322495803163
     0.002219961739535     0.009322495803163     0.003088112090137
1 88
     0.022705198743900     0.001286050458283     0.001286050458283
    -0.002219961739535     0.003088112090137     0.009322495803163
    -0.002219961739535     0.009322495803163     0.003088112090137
1 89
    -0.140489743053096    -0.048477296374501     0.048477296374501
    -0.074672597413643    -0.026743132017866     0.016449248274047
     0.074672597413643     0.016449248274047    -0.026743132017866
1 90
     0.003088112090137     0.002219961739535     0.009322495803163
    -0.001286050458283     0.022705198743900    -0.001286050458283
     0.009322495803163     0.002219961739535     0.003088112090137
1 91
     0.025626610410372    -0.006060788998245     0.006060788998245
    -0.006060788998245     0.025626610410372     0.006060788998245
     0.006060788998245     0.006060788998245     0.025626610410372
1 92
     0.003088112090137    -0.009322495803163    -0.002219961739535
    -0.009322495803163     0.003088112090137     0.002219961739535
     0.001286050458283    -0.001286050458283     0.022705198743900
1 93
     0.035890088562600     0.058265421993076     0.057743400411865
     0.043627250962343     0.036695659963066    -0.043627250962343
     0.057743400411865    -0.058265421993076     0.035890088562600
1 94
     0.003088112090137    -0.002219961739535     0.009322495803163
     0.001286050458283     0.022705198743900     0.001286050458283
     0.009322495803163    -0.002219961739535     0.003088112090137
1 95
     0.003088112090137    -0.009322495803163     0.002219961739535
    -0.009322495803163     0.003088112090137    -0.002219961739535
    -0.001286050458283     0.001286050458283     0.022705198743900
1 96
     0.035890088562600    -0.057743400411865    -0.058265421993076
    -0.057743400411865     0.035890088562600    -0.058265421993076
    -0.043627250962343    -0.043627250962343     0.036695659963066
1 97
    -0.026743132017866    -0.016449248274047    -0.074672597413643
    -0.016449248274047    -0.026743132017866    -0.074672597413643
    -0.048477296374501    -0.048477296374501    -0.140489743053096
1 98
    -0.026743132017866     0.074672597413643     0.016449248274047
     0.048477296374501    -0.140489743053096    -0.048477296374501
     0.016449248274047    -0.074672597413643    -0.026743132017866
1 99
    -0.002798905416632     0.013765424486054    -0.021472888400987
     0.020968190935915     0.012510486726143     0.020968190935915
    -0.021472888400987     0.013765424486054    -0.002798905416632
1 100
    -0.002798905416632     0.021472888400987    -0.013765424486054
     0.021472888400987    -0.002798905416632     0.013765424486054
    -0.020968190935915     0.020968190935915     0.012510486726143
1 101
    -0.140489743053096     0.048477296374501    -0.048477296374501
     0.074672597413643    -0.026743132017866     0.016449248274047
    -0.074672597413643     0.016449248274047    -0.026743132017866
1 102
     0.003088112090137     0.009322495803163     0.002219961739535
     0.009322495803163     0.003088112090137     0.002219961739535
    -0.001286050458283    -0.001286050458283     0.022705198743900
1 103
     0.025626610410372     0.006060788998245    -0.006060788998245
     0.006060788998245     0.025626610410372     0.006060788998245
    -0.006060788998245     0.006060788998245     0.025626610410372
1 104
     0.003088112090137    -0.002219961739535    -0.009322495803163
     0.001286050458283     0.022705198743900    -0.001286050458283
    -0.009322495803163     0.002219961739535     0.003088112090137
1 105
     0.012510486726143     0.020968190935915     0.020968190935915
     0.013765424486054    -0.002798905416632    -0.021472888400987
     0.013765424486054    -0.021472888400987    -0.002798905416632
1 106
     0.025626610410372     0.006060788998245     0.006060788998245
     0.006060788998245     0.025626610410372    -0.006060788998245
     0.006060788998245    -0.006060788998245     0.025626610410372
1 107
     0.025626610410372    -0.006060788998245    -0.006060788998245
    -0.006060788998245     0.025626610410372    -0.006060788998245
    -0.006060788998245    -0.006060788998245     0.025626610410372
1 108
     0.012510486726143    -0.020968190935915    -0.020968190935915
    -0.013765424486054    -0.002798905416632    -0.021472888400987
    -0.013765424486054    -0.021472888400987    -0.002798905416632
1 109
    -0.002798905416632     0.021472888400987     0.013765424486054
     0.021472888400987    -0.002798905416632    -0.013765424486054
     0.020968190935915    -0.020968190935915     0.012510486726143
1 110
     0.022705198743900     0.001286050458283    -0.001286050458283
    -0.002219961739535     0.003088112090137    -0.009322495803163
     0.002219961739535    -0.009322495803163     0.003088112090137
1 111
    -0.002798905416632    -0.013765424486054    -0.021472888400987
    -0.020968190935915     0.012510486726143    -0.020968190935915
    -0.021472888400987    -0.013765424486054    -0.002798905416632
1 112
     0.042183869245246    -0.006642561102466     0.006642561102466
    -0.006642561102466     0.042183869245246     0.006642561102466
     0.006642561102466     0.006642561102466     0.042183869245246
1 113
    -3.955048691948813    -2.001561380340672     2.001561380340672
    -2.001561380340672    -3.955048691948813     2.001561380340672
     2.001561380340672     2.001561380340672    -3.955048691948814
1 114
     0.035890088562600     0.057743400411865    -0.058265421993076
     0.057743400411865     0.035890088562600     0.058265421993076
    -0.043627250962343     0.043627250962343     0.036695659963066
1 115
     0.012510486726143     0.020968190935915    -0.020968190935915
     0.013765424486054    -0.002798905416632     0.021472888400987
    -0.013765424486054     0.021472888400987    -0.002798905416632
1 116
     0.035890088562600     0.058265421993076    -0.057743400411865
     0.043627250962343     0.036695659963066     0.043627250962343
    -0.057743400411865     0.058265421993076     0.035890088562600
1 117
     0.035890088562600     0.057743400411865     0.058265421993076
     0.057743400411865     0.035890088562600    -0.058265421993076
     0.043627250962343    -0.043627250962343     0.036695659963066
1 118
     0.003088112090137     0.009322495803163    -0.002219961739535
     0.009322495803163     0.003088112090137    -0.002219961739535
     0.001286050458283     0.001286050458283     0.022705198743900
1 119
     0.003088112090137     0.002219961739535    -0.009322495803163
    -0.001286050458283     0.022705198743900     0.001286050458283
    -0.009322495803163    -0.002219961739535     0.003088112090137
1 120
     0.035890088562600    -0.058265421993076    -0.057743400411865
    -0.043627250962343     0.036695659963066    -0.043627250962343
    -0.057743400411865    -0.058265421993076     0.035890088562600
1 121
    -0.002798905416632     0.013765424486054     0.021472888400987
     0.020968190935915     0.012510486726143    -0.020968190935915
     0.021472888400987    -0.013765424486054    -0.002798905416632
1 122
     0.022705198743900    -0.001286050458283     0.001286050458283
     0.002219961739535     0.003088112090137    -0.009322495803163
    -0.002219961739535    -0.009322495803163     0.003088112090137
1 123
    -0.002798905416632    -0.021472888400987    -0.013765424486054
    -0.021472888400987    -0.002798905416632    -0.013765424486054
    -0.020968190935915    -0.020968190935915     0.012510486726143
1 124
     0.042183869245246     0.006642561102466    -0.006642561102466
     0.006642561102466     0.042183869245246     0.006642561102466
    -0.006642561102466     0.006642561102466     0.042183869245246
1 125
     0.036695659963066     0.043627250962343     0.043627250962343
     0.058265421993076     0.035890088562600    -0.057743400411865
     0.058265421993076    -0.057743400411865     0.035890088562600
1 126
     0.036695659963066    -0.043627250962343    -0.043627250962343
    -0.058265421993076     0.035890088562600    -0.057743400411865
    -0.058265421993076    -0.057743400411865     0.035890088562600
1 127
     0.042183869245246     0.006642561102466     0.006642561102466
     0.006642561102466     0.042183869245246    -0.006642561102466
     0.006642561102466    -0.006642561102466     0.042183869245246
1 128
     0.042183869245246    -0.006642561102466    -0.006642561102466
    -0.006642561102466     0.042183869245246    -0.006642561102466
    -0.006642561102466    -0.006642561102466     0.042183869245246
2 1
     0.487956004920524    -0.203510281372956    -0.203510281372956
     0.203520711197979    -0.214499427859376    -0.223215933151063
     0.203520711197979    -0.223215933151063    -0.214499427859376
2 2
    15.915409524309149     0.000000000000001     0.000000000000000
     0.000000000000001    15.915409524309149    -0.000000000000000
     0.000000000000001    -0.000000000000000    15.915409524309151
2 3
     0.487956004920524     0.203510281372956     0.203510281372956
    -0.203520711197979    -0.214499427859376    -0.223215933151063
    -0.203520711197979    -0.223215933151063    -0.214499427859376
2 4
     0.073481829594125     0.000000000000000    -0.000000000000000
     0.000000000000000    -0.004362848839921    -0.055586724729246
     0.000000000000000    -0.055586724729246    -0.004362848839921
2 5
    -0.214499427859376     0.223215933151063     0.203520711197979
     0.223215933151063    -0.214499427859376    -0.203520711197978
    -0.203510281372956     0.203510281372956     0.487956004920524
2 6
    -0.214499427859376    -0.203520711197979    -0.223215933151063
     0.203510281372956     0.487956004920524     0.203510281372956
    -0.223215933151063    -0.203520711197979    -0.214499427859376
2 7
    -0.011177590443606     0.031907132840871    -0.019827274144471
     0.031907132840871    -0.011177590443606    -0.019827274144471
    -0.007392094290524    -0.007392094290524    -0.009918586819704
2 8
    -0.011177590443606     0.019827274144471    -0.031907132840871
     0.007392094290524    -0.009918586819704    -0.007392094290524
    -0.031907132840871    -0.019827274144471    -0.011177590443606
2 9
    -0.009912222858673     0.019817197872839    -0.019817197872839
     0.007387144543056    -0.011170165822404    -0.031910845151472
    -0.007387144543056    -0.031910845151472    -0.011170165822404
2 10
    -0.004362848839921     0.000000000000000    -0.055586724729246
     0.000000000000000     0.073481829594125    -0.000000000000000
    -0.055586724729246    -0.000000000000000    -0.004362848839921
2 11
    -0.009918586819704     0.007392094290524    -0.007392094290524
     0.019827274144471    -0.011177590443606    -0.031907132840871
    -0.019827274144471    -0.031907132840871    -0.011177590443606
2 12
    -0.004362848839921     0.055586724729246    -0.000000000000000
     0.055586724729246    -0.004362848839921    -0.000000000000000
     0.000000000000000     0.000000000000000     0.073481829594125
2 13
    -0.011170165822404     0.031910845151472    -0.007387144543056
     0.031910845151472    -0.011170165822404    -0.007387144543056
    -0.019817197872839    -0.019817197872839    -0.009912222858673
2 14
    -0.214499427859376     0.203520711197979    -0.223215933151063
    -0.203510281372956     0.487956004920524    -0.203510281372956
    -0.223215933151063     0.203520711197979    -0.214499427859376
2 15
    -0.214499427859376     0.223215933151063    -0.203520711197978
     0.223215933151063    -0.214499427859376     0.203520711197979
     0.203510281372956    -0.203510281372956     0.487956004920524
2 16
    -0.011170165822404     0.007387144543056    -0.031910845151472
     0.019817197872839    -0.009912222858673    -0.019817197872839
    -0.031910845151472    -0.007387144543056    -0.011170165822404
2 17
    -0.214499427859376     0.203520711197979     0.223215933151063
    -0.203510281372956     0.487956004920524     0.203510281372956
     0.223215933151063    -0.203520711197979    -0.214499427859376
2 18
    -0.214499427859376    -0.223215933151063    -0.203520711197979