 2102

    1
0.0000000000e+00 0.0000000000e+00 0.0000000000e+00
0.0000000000e+00 0.0000000000e+00 0.0000000000e+00
     1      1      1
 1  1  1     0.0000000000e+00
 1  1  2     0.0000000000e+00
 1  1  3     0.0000000000e+00
 1  2  1     0.0000000000e+00
 1  2  2     0.0000000000e+00
 1  2  3     4.2641136174e+01
 1  3  1     0.0000000000e+00
 1  3  2     4.2641136174e+01
 1  3  3     0.0000000000e+00
 2  1  1     0.0000000000e+00
 2  1  2     0.0000000000e+00
 2  1  3     4.2641136174e+01
 2  2  1     0.0000000000e+00
 2  2  2     0.0000000000e+00
 2  2  3     0.0000000000e+00
 2  3  1     4.2641136174e+01
 2  3  2     0.0000000000e+00
 2  3  3     0.0000000000e+00
 3  1  1     0.0000000000e+00
 3  1  2     4.2641136174e+01
 3  1  3     0.0000000000e+00
 3  2  1     4.2641136174e+01
 3  2  2     0.0000000000e+00
 3  2  3     0.0000000000e+00
 3  3  1     0.0000000000e+00
 3  3  2     0.0000000000e+00
 3  3  3     0.0000000000e+00

    2
0.0000000000e+00 0.0000000000e+00 0.0000000000e+00
0.0000000000e+00 0.0000000000e+00 0.0000000000e+00
     1      1      2
 1  1  1    -4.9253625544e+00
 1  1  2    -7.3271540660e+00
 1  1  3    -7.3271540660e+00
 1  2  1    -7.9715272086e+00
 1  2  2    -7.9715272086e+00
 1  2  3    -1.0972759743e+01
 1  3  1    -7.9715272086e+00
 1  3  2    -1.0972759743e+01
 1  3  3    -7.9715272086e+00
 2  1  1    -7.9715272086e+00
 2  1  2    -7.9715272086e+00
 2  1  3    -1.0972759743e+01
 2  2  1    -7.3271540660e+00
 2  2  2    -4.9253625544e+00
 2  2  3    -7.3271540660e+00
 2  3  1    -1.0972759743e+01
 2  3  2    -7.9715272086e+00
 2  3  3    -7.9715272086e+00
 3  1  1    -7.9715272086e+00
 3  1  2    -1.0972759743e+01
 3  1  3    -7.9715272086e+00
 3  2  1    -1.0972759743e+01
 3  2  2    -7.9715272086e+00
 3  2  3    -7.9715272086e+00
 3  3  1    -7.3271540660e+00
 3  3  2    -7.3271540660e+00
 3  3  3    -4.9253625544e+00

    3
0.0000000000e+00 0.0000000000e+00 0.0000000000e+00
0.0000000000e+00 2.4085000000e+00 2.4085000000e+00
     1      1      1
 1  1  1     1.3044748036e-01
 1  1  2     1.1899879629e-01
 1  1  3     1.1899879629e-01
 1  2  1    -7.5267666896e-02
 1  2  2    -8.2433835167e-02
 1  2  3     1.6885435999e-01
 1  3  1    -7.5267666896e-02
 1  3  2     1.6885435999e-01
 1  3  3    -8.2433835167e-02
 2  1  1    -7.5267666896e-02
 2  1  2    -8.2433835167e-02
 2  1  3     1.6885435999e-01
 2  2  1    -2.4013068853e-01
 2  2  2    -2.6827155556e-01
 2  2  3    -4.7039078761e-01
 2  3  1    -1.1585530807e-01
 2  3  2    -4.1303821244e-01
 2  3  3    -4.1303821244e-01
 3  1  1    -7.5267666896e-02
 3  1  2     1.6885435999e-01
 3  1  3    -8.2433835167e-02
 3  2  1    -1.1585530807e-01
 3  2  2    -4.1303821244e-01
 3  2  3    -4.1303821244e-01
 3  3  1    -2.4013068853e-01
 3  3  2    -4.7039078761e-01
 3  3  3    -2.6827155556e-01

    4
0.0000000000e+00 0.0000000000e+00 0.0000000000e+00
0.0000000000e+00 2.4085000000e+00 2.4085000000e+00
     1      1      2
 1  1  1    -1.2436362355e-02
 1  1  2     8.8856403041e-02
 1  1  3     8.8856403041e-02
 1  2  1    -3.5539997990e-02
 1  2  2     2.9976706809e-02
 1  2  3    -1.6599547015e-03
 1  3  1    -3.5539997990e-02
 1  3  2    -1.6599547015e-03
 1  3  3     2.9976706809e-02
 2  1  1    -3.5539997990e-02
 2  1  2     2.9976706809e-02
 2  1  3    -1.6599547015e-03
 2  2  1     9.7589155144e-02
 2  2  2    -1.2574145994e-01
 2  2  3    -2.3503978851e-01
 2  3  1     1.1458185274e-01
 2  3  2    -7.7398506248e-02
 2  3  3    -7.7398506248e-02
 3  1  1    -3.5539997990e-02
 3  1  2    -1.6599547015e-03
 3  1  3     2.9976706809e-02
 3  2  1     1.1458185274e-01
 3  2  2    -7.7398506248e-02
 3  2  3    -7.7398506248e-02
 3  3  1     9.7589155144e-02
 3  3  2    -2.3503978851e-01
 3  3  3    -1.2574145994e-01

    5
0.0000000000e+00 0.0000000000e+00 0.0000000000e+00
0.0000000000e+00 -4.8170000000e+00 -4.8170000000e+00
     1      1      2
 1  1  1    -1.2436362355e-02
 1  1  2    -8.8856403041e-02
 1  1  3    -8.8856403041e-02
 1  2  1     3.5539997990e-02
 1  2  2     2.9976706809e-02
 1  2  3    -1.6599547015e-03
 1  3  1     3.5539997990e-02
 1  3  2    -1.6599547015e-03
 1  3  3     2.9976706809e-02
 2  1  1     3.5539997990e-02
 2  1  2     2.9976706809e-02
 2  1  3    -1.6599547015e-03
 2  2  1     9.7589155144e-02
 2  2  2     1.2574145994e-01
 2  2  3     2.3503978851e-01
 2  3  1     1.1458185274e-01
 2  3  2     7.7398506248e-02
 2  3  3     7.7398506248e-02
 3  1  1     3.5539997990e-02
 3  1  2    -1.6599547015e-03
 3  1  3     2.9976706809e-02
 3  2  1     1.1458185274e-01
 3  2  2     7.7398506248e-02
 3  2  3     7.7398506248e-02
 3  3  1     9.7589155144e-02
 3  3  2     2.3503978851e-01
 3  3  3     1.2574145994e-01

    6
0.0000000000e+00 0.0000000000e+00 0.0000000000e+00
0.0000000000e+00 -2.4085000000e+00 -2.4085000000e+00
     1      1      1
 1  1  1     1.3044748036e-01
 1  1  2    -1.1899879629e-01
 1  1  3    -1.1899879629e-01
 1  2  1     7.5267666896e-02
 1  2  2    -8.2433835167e-02
 1  2  3     1.6885435999e-01
 1  3  1     7.5267666896e-02
 1  3  2     1.6885435999e-01
 1  3  3    -8.2433835167e-02
 2  1  1     7.5267666896e-02
 2  1  2    -8.2433835167e-02
 2  1  3     1.6885435999e-01
 2  2  1    -2.4013068853e-01
 2  2  2     2.6827155556e-01
 2  2  3     4.7039078761e-01
 2  3  1    -1.1585530807e-01
 2  3  2     4.1303821244e-01
 2  3  3     4.1303821244e-01
 3  1  1     7.5267666896e-02
 3  1  2     1.6885435999e-01
 3  1  3    -8.2433835167e-02
 3  2  1    -1.1585530807e-01
 3  2  2     4.1303821244e-01
 3  2  3     4.1303821244e-01
 3  3  1    -2.4013068853e-01
 3  3  2     4.7039078761e-01
 3  3  3     2.6827155556e-01

    7
0.0000000000e+00 0.0000000000e+00 0.0000000000e+00
0.0000000000e+00 -2.4085000000e+00 -2.4085000000e+00
     1      1      2
 1  1  1    -4.9253625544e+00
 1  1  2     7.3271540660e+00
 1  1  3     7.3271540660e+00
 1  2  1     7.9715272086e+00
 1  2  2    -7.9715272086e+00
 1  2  3    -1.0972759743e+01
 1  3  1     7.9715272086e+00
 1  3  2    -1.0972759743e+01
 1  3  3    -7.9715272086e+00
 2  1  1     7.9715272086e+00
 2  1  2    -7.9715272086e+00
 2  1  3    -1.0972759743e+01
 2  2  1    -7.3271540660e+00
 2  2  2     4.9253625544e+00
 2  2  3     7.3271540660e+00
 2  3  1    -1.0972759743e+01
 2  3  2     7.9715272086e+00
 2  3  3     7.9715272086e+00
 3  1  1     7.9715272086e+00
 3  1  2    -1.0972759743e+01
 3  1  3    -7.9715272086e+00
 3  2  1    -1.0972759743e+01
 3  2  2     7.9715272086e+00
 3  2  3     7.9715272086e+00
 3  3  1    -7.3271540660e+00
 3  3  2     7.3271540660e+00
 3  3  3     4.9253625544e+00

    8
0.0000000000e+00 0.0000000000e+00 0.0000000000e+00
2.4085000000e+00 0.0000000000e+00 2.4085000000e+00
     1      1      1
 1  1  1    -2.6827155556e-01
 1  1  2    -2.4013068853e-01
 1  1  3    -4.7039078761e-01
 1  2  1    -8.2433835167e-02
 1  2  2    -7.5267666896e-02
 1  2  3     1.6885435999e-01
 1  3  1    -4.1303821244e-01
 1  3  2    -1.1585530807e-01
 1  3  3    -4.1303821244e-01
 2  1  1    -8.2433835167e-02
 2  1  2    -7.5267666896e-02
 2  1  3     1.6885435999e-01
 2  2  1     1.1899879629e-01
 2  2  2     1.3044748036e-01
 2  2  3     1.1899879629e-01
 2  3  1     1.6885435999e-01
 2  3  2    -7.5267666896e-02
 2  3  3    -8.2433835167e-02
 3  1  1    -4.1303821244e-01
 3  1  2    -1.1585530807e-01
 3  1  3    -4.1303821244e-01
 3  2  1     1.6885435999e-01
 3  2  2    -7.5267666896e-02
 3  2  3    -8.2433835167e-02
 3  3  1    -4.7039078761e-01
 3  3  2    -2.4013068853e-01
 3  3  3    -2.6827155556e-01

    9
0.0000000000e+00 0.0000000000e+00 0.0000000000e+00
2.4085000000e+00 0.0000000000e+00 2.4085000000e+00
     1      1      2
 1  1  1    -1.2574145994e-01
 1  1  2     9.7589155144e-02
 1  1  3    -2.3503978851e-01
 1  2  1     2.9976706809e-02
 1  2  2    -3.5539997990e-02
 1  2  3    -1.6599547015e-03
 1  3  1    -7.7398506248e-02
 1  3  2     1.1458185274e-01
 1  3  3    -7.7398506248e-02
 2  1  1     2.9976706809e-02
 2  1  2    -3.5539997990e-02
 2  1  3    -1.6599547015e-03
 2  2  1     8.8856403041e-02
 2  2  2    -1.2436362355e-02
 2  2  3     8.8856403041e-02
 2  3  1    -1.6599547015e-03
 2  3  2    -3.5539997990e-02
 2  3  3     2.9976706809e-02
 3  1  1    -7.7398506248e-02
 3  1  2     1.1458185274e-01
 3  1  3    -7.7398506248e-02
 3  2  1    -1.6599547015e-03
 3  2  2    -3.5539997990e-02
 3  2  3     2.9976706809e-02
 3  3  1    -2.3503978851e-01
 3  3  2     9.7589155144e-02
 3  3  3    -1.2574145994e-01

   10
0.0000000000e+00 0.0000000000e+00 0.0000000000e+00
2.4085000000e+00 -4.8170000000e+00 -2.4085000000e+00
     1      1      2
 1  1  1    -1.2574145994e-01
 1  1  2     2.3503978851e-01
 1  1  3    -9.7589155144e-02
 1  2  1     7.7398506248e-02
 1  2  2    -7.7398506248e-02
 1  2  3     1.1458185274e-01
 1  3  1    -2.9976706809e-02
 1  3  2    -1.6599547015e-03
 1  3  3    -3.5539997990e-02
 2  1  1     7.7398506248e-02
 2  1  2    -7.7398506248e-02
 2  1  3     1.1458185274e-01
 2  2  1    -2.3503978851e-01
 2  2  2     1.2574145994e-01
 2  2  3    -9.7589155144e-02
 2  3  1    -1.6599547015e-03
 2  3  2    -2.9976706809e-02
 2  3  3     3.5539997990e-02
 3  1  1    -2.9976706809e-02
 3  1  2    -1.6599547015e-03
 3  1  3    -3.5539997990e-02
 3  2  1    -1.6599547015e-03
 3  2  2    -2.9976706809e-02
 3  2  3     3.5539997990e-02
 3  3  1     8.8856403041e-02
 3  3  2    -8.8856403041e-02
 3  3  3     1.2436362355e-02

   11
0.0000000000e+00 0.0000000000e+00 0.0000000000e+00
2.4085000000e+00 -2.4085000000e+00 0.0000000000e+00
     1      1      1
 1  1  1    -2.6827155556e-01
 1  1  2     4.7039078761e-01
 1  1  3     2.4013068853e-01
 1  2  1     4.1303821244e-01
 1  2  2    -4.1303821244e-01
 1  2  3    -1.1585530807e-01
 1  3  1     8.2433835167e-02
 1  3  2     1.6885435999e-01
 1  3  3    -7.5267666896e-02
 2  1  1     4.1303821244e-01
 2  1  2    -4.1303821244e-01
 2  1  3    -1.1585530807e-01
 2  2  1    -4.7039078761e-01
 2  2  2     2.6827155556e-01
 2  2  3     2.4013068853e-01
 2  3  1     1.6885435999e-01
 2  3  2     8.2433835167e-02
 2  3  3     7.5267666896e-02
 3  1  1     8.2433835167e-02
 3  1  2     1.6885435999e-01
 3  1  3    -7.5267666896e-02
 3  2  1     1.6885435999e-01
 3  2  2     8.2433835167e-02
 3  2  3     7.5267666896e-02
 3  3  1     1.1899879629e-01
 3  3  2    -1.1899879629e-01
 3  3  3    -1.3044748036e-01

   12
0.0000000000e+00 0.0000000000e+00 0.0000000000e+00
2.4085000000e+00 -2.4085000000e+00 0.0000000000e+00
     1      1      2
 1  1  1     4.1524111939e-02
 1  1  2     2.4765422093e-02
 1  1  3    -2.4765422093e-02
 1  2  1     3.4780507052e-02
 1  2  2    -6.0759000662e-02
 1  2  3    -3.3592809560e-02
 1  3  1    -3.4780507052e-02
 1  3  2    -3.3592809560e-02
 1  3  3    -6.0759000662e-02
 2  1  1     3.4780507052e-02
 2  1  2    -6.0759000662e-02
 2  1  3    -3.3592809560e-02
 2  2  1    -7.4736358445e-02
 2  2  2     9.9585834937e-02
 2  2  3    -1.4363374717e-02
 2  3  1     8.7449687991e-02
 2  3  2    -6.0388366830e-02
 2  3  3     6.0388366830e-02
 3  1  1    -3.4780507052e-02
 3  1  2    -3.3592809560e-02
 3  1  3    -6.0759000662e-02
 3  2  1     8.7449687991e-02
 3  2  2    -6.0388366830e-02
 3  2  3     6.0388366830e-02
 3  3  1    -7.4736358445e-02
 3  3  2     1.4363374717e-02
 3  3  3    -9.9585834937e-02

   13
0.0000000000e+00 0.0000000000e+00 0.0000000000e+00
-4.8170000000e+00 0.0000000000e+00 -4.8170000000e+00
     1      1      2
 1  1  1     1.2574145994e-01
 1  1  2     9.7589155144e-02
 1  1  3     2.3503978851e-01
 1  2  1     2.9976706809e-02
 1  2  2     3.5539997990e-02
 1  2  3    -1.6599547015e-03
 1  3  1     7.7398506248e-02
 1  3  2     1.1458185274e-01
 1  3  3     7.7398506248e-02
 2  1  1     2.9976706809e-02
 2  1  2     3.5539997990e-02
 2  1  3    -1.6599547015e-03
 2  2  1    -8.8856403041e-02
 2  2  2    -1.2436362355e-02
 2  2  3    -8.8856403041e-02
 2  3  1    -1.6599547015e-03
 2  3  2     3.5539997990e-02
 2  3  3     2.9976706809e-02
 3  1  1     7.7398506248e-02
 3  1  2     1.1458185274e-01
 3  1  3     7.7398506248e-02
 3  2  1    -1.6599547015e-03
 3  2  2     3.5539997990e-02
 3  2  3     2.9976706809e-02
 3  3  1     2.3503978851e-01
 3  3  2     9.7589155144e-02
 3  3  3     1.2574145994e-01

   14
0.0000000000e+00 0.0000000000e+00 0.0000000000e+00
-4.8170000000e+00 2.4085000000e+00 -2.4085000000e+00
     1      1      2
 1  1  1     1.2574145994e-01
 1  1  2    -2.3503978851e-01
 1  1  3    -9.7589155144e-02
 1  2  1    -7.7398506248e-02
 1  2  2     7.7398506248e-02
 1  2  3     1.1458185274e-01
 1  3  1    -2.9976706809e-02
 1  3  2    -1.6599547015e-03
 1  3  3     3.5539997990e-02
 2  1  1    -7.7398506248e-02
 2  1  2     7.7398506248e-02
 2  1  3     1.1458185274e-01
 2  2  1     2.3503978851e-01
 2  2  2    -1.2574145994e-01
 2  2  3    -9.7589155144e-02
 2  3  1    -1.6599547015e-03
 2  3  2    -2.9976706809e-02
 2  3  3    -3.5539997990e-02
 3  1  1    -2.9976706809e-02
 3  1  2    -1.6599547015e-03
 3  1  3     3.5539997990e-02
 3  2  1    -1.6599547015e-03
 3  2  2    -2.9976706809e-02
 3  2  3    -3.5539997990e-02
 3  3  1    -8.8856403041e-02
 3  3  2     8.8856403041e-02
 3  3  3     1.2436362355e-02

   15
0.0000000000e+00 0.0000000000e+00 0.0000000000e+00
-2.4085000000e+00 0.0000000000e+00 -2.4085000000e+00
     1      1      1
 1  1  1     2.6827155556e-01
 1  1  2    -2.4013068853e-01
 1  1  3     4.7039078761e-01
 1  2  1    -8.2433835167e-02
 1  2  2     7.5267666896e-02
 1  2  3     1.6885435999e-01
 1  3  1     4.1303821244e-01
 1  3  2    -1.1585530807e-01
 1  3  3     4.1303821244e-01
 2  1  1    -8.2433835167e-02
 2  1  2     7.5267666896e-02
 2  1  3     1.6885435999e-01
 2  2  1    -1.1899879629e-01
 2  2  2     1.3044748036e-01
 2  2  3    -1.1899879629e-01
 2  3  1     1.6885435999e-01
 2  3  2     7.5267666896e-02
 2  3  3    -8.2433835167e-02
 3  1  1     4.1303821244e-01
 3  1  2    -1.1585530807e-01
 3  1  3     4.1303821244e-01
 3  2  1     1.6885435999e-01
 3  2  2     7.5267666896e-02
 3  2  3    -8.2433835167e-02
 3  3  1     4.7039078761e-01
 3  3  2    -2.4013068853e-01
 3  3  3     2.6827155556e-01

   16
0.0000000000e+00 0.0000000000e+00 0.0000000000e+00
-2.4085000000e+00 0.0000000000e+00 -2.4085000000e+00
     1      1      2
 1  1  1     4.9253625544e+00
 1  1  2    -7.3271540660e+00
 1  1  3     7.3271540660e+00
 1  2  1    -7.9715272086e+00
 1  2  2     7.9715272086e+00
 1  2  3    -1.0972759743e+01
 1  3  1     7.9715272086e+00
 1  3  2    -1.0972759743e+01
 1  3  3     7.9715272086e+00
 2  1  1    -7.9715272086e+00
 2  1  2     7.9715272086e+00
 2  1  3    -1.0972759743e+01
 2  2  1     7.3271540660e+00
 2  2  2    -4.9253625544e+00
 2  2  3     7.3271540660e+00
 2  3  1    -1.0972759743e+01
 2  3  2     7.9715272086e+00
 2  3  3    -7.9715272086e+00
 3  1  1     7.9715272086e+00
 3  1  2    -1.0972759743e+01
 3  1  3     7.9715272086e+00
 3  2  1    -1.0972759743e+01
 3  2  2     7.9715272086e+00
 3  2  3    -7.9715272086e+00
 3  3  1     7.3271540660e+00
 3  3  2    -7.3271540660e+00
 3  3  3     4.9253625544e+00

   17
0.0000000000e+00 0.0000000000e+00 0.0000000000e+00
-2.4085000000e+00 2.4085000000e+00 0.0000000000e+00
     1      1      1
 1  1  1     2.6827155556e-01
 1  1  2    -4.7039078761e-01
 1  1  3     2.4013068853e-01
 1  2  1    -4.1303821244e-01
 1  2  2     4.1303821244e-01
 1  2  3    -1.1585530807e-01
 1  3  1     8.2433835167e-02
 1  3  2     1.6885435999e-01
 1  3  3     7.5267666896e-02
 2  1  1    -4.1303821244e-01
 2  1  2     4.1303821244e-01
 2  1  3    -1.1585530807e-01
 2  2  1     4.7039078761e-01
 2  2  2    -2.6827155556e-01
 2  2  3     2.4013068853e-01
 2  3  1     1.6885435999e-01
 2  3  2     8.2433835167e-02
 2  3  3    -7.5267666896e-02
 3  1  1     8.2433835167e-02
 3  1  2     1.6885435999e-01
 3  1  3     7.5267666896e-02
 3  2  1     1.6885435999e-01
 3  2  2     8.2433835167e-02
 3  2  3    -7.5267666896e-02
 3  3  1    -1.1899879629e-01
 3  3  2     1.1899879629e-01
 3  3  3    -1.3044748036e-01

   18
0.0000000000e+00 0.0000000000e+00 0.0000000000e+00
-2.4085000000e+00 2.4085000000e+00 0.0000000000e+00
     1      1      2
 1  1  1     9.9585834937e-02
 1  1  2    -7.4736358445e-02
 1  1  3    -1.4363374717e-02
 1  2  1    -6.0759000662e-02
 1  2  2     3.4780507052e-02
 1  2  3    -3.3592809560e-02
 1  3  1    -6.0388366830e-02
 1  3  2     8.7449687991e-02
 1  3  3     6.0388366830e-02
 2  1  1    -6.0759000662e-02
 2  1  2     3.4780507052e-02
 2  1  3    -3.3592809560e-02
 2  2  1     2.4765422093e-02
 2  2  2     4.1524111939e-02
 2  2  3    -2.4765422093e-02
 2  3  1    -3.3592809560e-02
 2  3  2    -3.4780507052e-02
 2  3  3    -6.0759000662e-02
 3  1  1    -6.0388366830e-02
 3  1  2     8.7449687991e-02
 3  1  3     6.0388366830e-02
 3  2  1    -3.3592809560e-02
 3  2  2    -3.4780507052e-02
 3  2  3    -6.0759000662e-02
 3  3  1     1.4363374717e-02
 3  3  2    -7.4736358445e-02
 3  3  3    -9.9585834937e-02

   19
0.0000000000e+00 0.0000000000e+00 0.0000000000e+00
-2.4085000000e+00 -2.4085000000e+00 -4.8170000000e+00
     1      1      2
 1  1  1     9.9585834937e-02
 1  1  2     1.4363374717e-02
 1  1  3     7.4736358445e-02
 1  2  1     6.0388366830e-02
 1  2  2     6.0388366830e-02
 1  2  3     8.7449687991e-02
 1  3  1     6.0759000662e-02
 1  3  2    -3.3592809560e-02
 1  3  3     3.4780507052e-02
 2  1  1     6.0388366830e-02
 2  1  2     6.0388366830e-02
 2  1  3     8.7449687991e-02
 2  2  1     1.4363374717e-02
 2  2  2     9.9585834937e-02
 2  2  3     7.4736358445e-02
 2  3  1    -3.3592809560e-02
 2  3  2     6.0759000662e-02
 2  3  3     3.4780507052e-02
 3  1  1     6.0759000662e-02
 3  1  2    -3.3592809560e-02
 3  1  3     3.4780507052e-02
 3  2  1    -3.3592809560e-02
 3  2  2     6.0759000662e-02
 3  2  3     3.4780507052e-02
 3  3  1     2.4765422093e-02
 3  3  2     2.4765422093e-02
 3  3  3    -4.1524111939e-02

   20
0.0000000000e+00 0.0000000000e+00 0.0000000000e+00
2.4085000000e+00 2.4085000000e+00 0.0000000000e+00
     1      1      1
 1  1  1    -2.6827155556e-01
 1  1  2    -4.7039078761e-01
 1  1  3    -2.4013068853e-01
 1  2  1    -4.1303821244e-01
 1  2  2    -4.1303821244e-01
 1  2  3    -1.1585530807e-01
 1  3  1    -8.2433835167e-02
 1  3  2     1.6885435999e-01
 1  3  3    -7.5267666896e-02
 2  1  1    -4.1303821244e-01
 2  1  2    -4.1303821244e-01
 2  1  3    -1.1585530807e-01
 2  2  1    -4.7039078761e-01
 2  2  2    -2.6827155556e-01
 2  2  3    -2.4013068853e-01
 2  3  1     1.6885435999e-01
 2  3  2    -8.2433835167e-02
 2  3  3    -7.5267666896e-02
 3  1  1    -8.2433835167e-02
 3  1  2     1.6885435999e-01
 3  1  3    -7.5267666896e-02
 3  2  1     1.6885435999e-01
 3  2  2    -8.2433835167e-02
 3  2  3    -7.5267666896e-02
 3  3  1     1.1899879629e-01
 3  3  2     1.1899879629e-01
 3  3  3     1.3044748036e-01

   21
0.0000000000e+00 0.0000000000e+00 0.0000000000e+00
2.4085000000e+00 2.4085000000e+00 0.0000000000e+00
     1      1      2
 1  1  1    -1.2574145994e-01
 1  1  2    -2.3503978851e-01
 1  1  3     9.7589155144e-02
 1  2  1    -7.7398506248e-02
 1  2  2    -7.7398506248e-02
 1  2  3     1.1458185274e-01
 1  3  1     2.9976706809e-02
 1  3  2    -1.6599547015e-03
 1  3  3    -3.5539997990e-02
 2  1  1    -7.7398506248e-02
 2  1  2    -7.7398506248e-02
 2  1  3     1.1458185274e-01
 2  2  1    -2.3503978851e-01
 2  2  2    -1.2574145994e-01
 2  2  3     9.7589155144e-02
 2  3  1    -1.6599547015e-03
 2  3  2     2.9976706809e-02
 2  3  3    -3.5539997990e-02
 3  1  1     2.9976706809e-02
 3  1  2    -1.6599547015e-03
 3  1  3    -3.5539997990e-02
 3  2  1    -1.6599547015e-03
 3  2  2     2.9976706809e-02
 3  2  3    -3.5539997990e-02
 3  3  1     8.8856403041e-02
 3  3  2     8.8856403041e-02
 3  3  3    -1.2436362355e-02

   22
0.0000000000e+00 0.0000000000e+00 0.0000000000e+00
2.4085000000e+00 -2.4085000000e+00 -4.8170000000e+00
     1      1      2
 1  1  1    -1.2574145994e-01
 1  1  2    -9.7589155144e-02
 1  1  3     2.3503978851e-01
 1  2  1    -2.9976706809e-02
 1  2  2    -3.5539997990e-02
 1  2  3    -1.6599547015e-03
 1  3  1     7.7398506248e-02
 1  3  2     1.1458185274e-01
 1  3  3    -7.7398506248e-02
 2  1  1    -2.9976706809e-02
 2  1  2    -3.5539997990e-02
 2  1  3    -1.6599547015e-03
 2  2  1     8.8856403041e-02
 2  2  2     1.2436362355e-02
 2  2  3    -8.8856403041e-02
 2  3  1    -1.6599547015e-03
 2  3  2     3.5539997990e-02
 2  3  3    -2.9976706809e-02
 3  1  1     7.7398506248e-02
 3  1  2     1.1458185274e-01
 3  1  3    -7.7398506248e-02
 3  2  1    -1.6599547015e-03
 3  2  2     3.5539997990e-02
 3  2  3    -2.9976706809e-02
 3  3  1    -2.3503978851e-01
 3  3  2    -9.7589155144e-02
 3  3  3     1.2574145994e-01

   23
0.0000000000e+00 0.0000000000e+00 0.0000000000e+00
2.4085000000e+00 0.0000000000e+00 -2.4085000000e+00
     1      1      1
 1  1  1    -2.6827155556e-01
 1  1  2     2.4013068853e-01
 1  1  3     4.7039078761e-01
 1  2  1     8.2433835167e-02
 1  2  2    -7.5267666896e-02
 1  2  3     1.6885435999e-01
 1  3  1     4.1303821244e-01
 1  3  2    -1.1585530807e-01
 1  3  3    -4.1303821244e-01
 2  1  1     8.2433835167e-02
 2  1  2    -7.5267666896e-02
 2  1  3     1.6885435999e-01
 2  2  1     1.1899879629e-01
 2  2  2    -1.3044748036e-01
 2  2  3    -1.1899879629e-01
 2  3  1     1.6885435999e-01
 2  3  2     7.5267666896e-02
 2  3  3     8.2433835167e-02
 3  1  1     4.1303821244e-01
 3  1  2    -1.1585530807e-01
 3  1  3    -4.1303821244e-01
 3  2  1     1.6885435999e-01
 3  2  2     7.5267666896e-02
 3  2  3     8.2433835167e-02
 3  3  1    -4.7039078761e-01
 3  3  2     2.4013068853e-01
 3  3  3     2.6827155556e-01

   24
0.0000000000e+00 0.0000000000e+00 0.0000000000e+00
2.4085000000e+00 0.0000000000e+00 -2.4085000000e+00
     1      1      2
 1  1  1     4.1524111939e-02
 1  1  2    -2.4765422093e-02
 1  1  3     2.4765422093e-02
 1  2  1    -3.4780507052e-02
 1  2  2    -6.0759000662e-02
 1  2  3    -3.3592809560e-02
 1  3  1     3.4780507052e-02
 1  3  2    -3.3592809560e-02
 1  3  3    -6.0759000662e-02
 2  1  1    -3.4780507052e-02
 2  1  2    -6.0759000662e-02
 2  1  3    -3.3592809560e-02
 2  2  1    -7.4736358445e-02
 2  2  2    -9.9585834937e-02
 2  2  3     1.4363374717e-02
 2  3  1     8.7449687991e-02
 2  3  2     6.0388366830e-02
 2  3  3    -6.0388366830e-02
 3  1  1     3.4780507052e-02
 3  1  2    -3.3592809560e-02
 3  1  3    -6.0759000662e-02
 3  2  1     8.7449687991e-02
 3  2  2     6.0388366830e-02
 3  2  3    -6.0388366830e-02
 3  3  1    -7.4736358445e-02
 3  3  2    -1.4363374717e-02
 3  3  3     9.9585834937e-02

   25
0.0000000000e+00 0.0000000000e+00 0.0000000000e+00
4.8170000000e+00 0.0000000000e+00 0.0000000000e+00
     1      1      1
 1  1  1    -3.4301833333e-01
 1  1  2     0.0000000000e+00
 1  1  3     0.0000000000e+00
 1  2  1     0.0000000000e+00
 1  2  2     2.3407891510e-02
 1  2  3     3.0335897101e-03
 1  3  1     0.0000000000e+00
 1  3  2     3.0335897101e-03
 1  3  3     2.3407891510e-02
 2  1  1     0.0000000000e+00
 2  1  2     2.3407891510e-02
 2  1  3     3.0335897101e-03
 2  2  1    -5.7280724747e-02
 2  2  2     0.0000000000e+00
 2  2  3     0.0000000000e+00
 2  3  1    -8.7874475656e-02
 2  3  2     0.0000000000e+00
 2  3  3     0.0000000000e+00
 3  1  1     0.0000000000e+00
 3  1  2     3.0335897101e-03
 3  1  3     2.3407891510e-02
 3  2  1    -8.7874475656e-02
 3  2  2     0.0000000000e+00
 3  2  3     0.0000000000e+00
 3  3  1    -5.7280724747e-02
 3  3  2     0.0000000000e+00
 3  3  3     0.0000000000e+00

   26
0.0000000000e+00 0.0000000000e+00 0.0000000000e+00
-2.4085000000e+00 2.4085000000e+00 -4.8170000000e+00
     1      1      2
 1  1  1     1.2436362355e-02
 1  1  2     8.8856403041e-02
 1  1  3    -8.8856403041e-02
 1  2  1    -3.5539997990e-02
 1  2  2    -2.9976706809e-02
 1  2  3    -1.6599547015e-03
 1  3  1     3.5539997990e-02
 1  3  2    -1.6599547015e-03
 1  3  3    -2.9976706809e-02
 2  1  1    -3.5539997990e-02
 2  1  2    -2.9976706809e-02
 2  1  3    -1.6599547015e-03
 2  2  1    -9.7589155144e-02
 2  2  2    -1.2574145994e-01
 2  2  3     2.3503978851e-01
 2  3  1     1.1458185274e-01
 2  3  2     7.7398506248e-02
 2  3  3    -7.7398506248e-02
 3  1  1     3.5539997990e-02
 3  1  2    -1.6599547015e-03
 3  1  3    -2.9976706809e-02
 3  2  1     1.1458185274e-01
 3  2  2     7.7398506248e-02
 3  2  3    -7.7398506248e-02
 3  3  1    -9.7589155144e-02
 3  3  2    -2.3503978851e-01
 3  3  3     1.2574145994e-01

   27
0.0000000000e+00 0.0000000000e+00 0.0000000000e+00
0.0000000000e+00 2.4085000000e+00 -2.4085000000e+00
     1      1      1
 1  1  1    -1.3044748036e-01
 1  1  2     1.1899879629e-01
 1  1  3    -1.1899879629e-01
 1  2  1    -7.5267666896e-02
 1  2  2     8.2433835167e-02
 1  2  3     1.6885435999e-01
 1  3  1     7.5267666896e-02
 1  3  2     1.6885435999e-01
 1  3  3     8.2433835167e-02
 2  1  1    -7.5267666896e-02
 2  1  2     8.2433835167e-02
 2  1  3     1.6885435999e-01
 2  2  1     2.4013068853e-01
 2  2  2    -2.6827155556e-01
 2  2  3     4.7039078761e-01
 2  3  1    -1.1585530807e-01
 2  3  2     4.1303821244e-01
 2  3  3    -4.1303821244e-01
 3  1  1     7.5267666896e-02
 3  1  2     1.6885435999e-01
 3  1  3     8.2433835167e-02
 3  2  1    -1.1585530807e-01
 3  2  2     4.1303821244e-01
 3  2  3    -4.1303821244e-01
 3  3  1     2.4013068853e-01
 3  3  2    -4.7039078761e-01
 3  3  3     2.6827155556e-01

   28
0.0000000000e+00 0.0000000000e+00 0.0000000000e+00
0.0000000000e+00 2.4085000000e+00 -2.4085000000e+00
     1      1      2
 1  1  1    -9.9585834937e-02
 1  1  2    -7.4736358445e-02
 1  1  3     1.4363374717e-02
 1  2  1    -6.0759000662e-02
 1  2  2    -3.4780507052e-02
 1  2  3    -3.3592809560e-02
 1  3  1     6.0388366830e-02
 1  3  2     8.7449687991e-02
 1  3  3    -6.0388366830e-02
 2  1  1    -6.0759000662e-02
 2  1  2    -3.4780507052e-02
 2  1  3    -3.3592809560e-02
 2  2  1    -2.4765422093e-02
 2  2  2     4.1524111939e-02
 2  2  3     2.4765422093e-02
 2  3  1    -3.3592809560e-02
 2  3  2     3.4780507052e-02
 2  3  3    -6.0759000662e-02
 3  1  1     6.0388366830e-02
 3  1  2     8.7449687991e-02
 3  1  3    -6.0388366830e-02
 3  2  1    -3.3592809560e-02
 3  2  2     3.4780507052e-02
 3  2  3    -6.0759000662e-02
 3  3  1    -1.4363374717e-02
 3  3  2    -7.4736358445e-02
 3  3  3     9.9585834937e-02

   29
0.0000000000e+00 0.0000000000e+00 0.0000000000e+00
0.0000000000e+00 4.8170000000e+00 0.0000000000e+00
     1      1      1
 1  1  1     0.0000000000e+00
 1  1  2    -5.7280724747e-02
 1  1  3     0.0000000000e+00
 1  2  1     2.3407891510e-02
 1  2  2     0.0000000000e+00
 1  2  3     3.0335897101e-03
 1  3  1     0.0000000000e+00
 1  3  2    -8.7874475656e-02
 1  3  3     0.0000000000e+00
 2  1  1     2.3407891510e-02
 2  1  2     0.0000000000e+00
 2  1  3     3.0335897101e-03
 2  2  1     0.0000000000e+00
 2  2  2    -3.4301833333e-01
 2  2  3     0.0000000000e+00
 2  3  1     3.0335897101e-03
 2  3  2     0.0000000000e+00
 2  3  3     2.3407891510e-02
 3  1  1     0.0000000000e+00
 3  1  2    -8.7874475656e-02
 3  1  3     0.0000000000e+00
 3  2  1     3.0335897101e-03
 3  2  2     0.0000000000e+00
 3  2  3     2.3407891510e-02
 3  3  1     0.0000000000e+00
 3  3  2    -5.7280724747e-02
 3  3  3     0.0000000000e+00

   30
0.0000000000e+00 0.0000000000e+00 0.0000000000e+00
0.0000000000e+00 0.0000000000e+00 -4.8170000000e+00
     1      1      1
 1  1  1     0.0000000000e+00
 1  1  2     0.0000000000e+00
 1  1  3     5.7280724747e-02
 1  2  1     0.0000000000e+00
 1  2  2     0.0000000000e+00
 1  2  3    -8.7874475656e-02
 1  3  1    -2.3407891510e-02
 1  3  2     3.0335897101e-03
 1  3  3     0.0000000000e+00
 2  1  1     0.0000000000e+00
 2  1  2     0.0000000000e+00
 2  1  3    -8.7874475656e-02
 2  2  1     0.0000000000e+00
 2  2  2     0.0000000000e+00
 2  2  3     5.7280724747e-02
 2  3  1     3.0335897101e-03
 2  3  2    -2.3407891510e-02
 2  3  3     0.0000000000e+00
 3  1  1    -2.3407891510e-02
 3  1  2     3.0335897101e-03
 3  1  3     0.0000000000e+00
 3  2  1     3.0335897101e-03
 3  2  2    -2.3407891510e-02
 3  2  3     0.0000000000e+00
 3  3  1     0.0000000000e+00
 3  3  2     0.0000000000e+00
 3  3  3     3.4301833333e-01

   31
0.0000000000e+00 0.0000000000e+00 0.0000000000e+00
0.0000000000e+00 0.0000000000e+00 -4.8170000000e+00
     1      1      2
 1  1  1    -9.9585834937e-02
 1  1  2    -1.4363374717e-02
 1  1  3     7.4736358445e-02
 1  2  1    -6.0388366830e-02
 1  2  2    -6.0388366830e-02
 1  2  3     8.7449687991e-02
 1  3  1     6.0759000662e-02
 1  3  2    -3.3592809560e-02
 1  3  3    -3.4780507052e-02
 2  1  1    -6.0388366830e-02
 2  1  2    -6.0388366830e-02
 2  1  3     8.7449687991e-02
 2  2  1    -1.4363374717e-02
 2  2  2    -9.9585834937e-02
 2  2  3     7.4736358445e-02
 2  3  1    -3.3592809560e-02
 2  3  2     6.0759000662e-02
 2  3  3    -3.4780507052e-02
 3  1  1     6.0759000662e-02
 3  1  2    -3.3592809560e-02
 3  1  3    -3.4780507052e-02
 3  2  1    -3.3592809560e-02
 3  2  2     6.0759000662e-02
 3  2  3    -3.4780507052e-02
 3  3  1    -2.4765422093e-02
 3  3  2    -2.4765422093e-02
 3  3  3    -4.1524111939e-02

   32
0.0000000000e+00 0.0000000000e+00 0.0000000000e+00
-4.8170000000e+00 -4.8170000000e+00 0.0000000000e+00
     1      1      2
 1  1  1     1.2574145994e-01
 1  1  2     2.3503978851e-01
 1  1  3     9.7589155144e-02
 1  2  1     7.7398506248e-02
 1  2  2     7.7398506248e-02
 1  2  3     1.1458185274e-01
 1  3  1     2.9976706809e-02
 1  3  2    -1.6599547015e-03
 1  3  3     3.5539997990e-02
 2  1  1     7.7398506248e-02
 2  1  2     7.7398506248e-02
 2  1  3     1.1458185274e-01
 2  2  1     2.3503978851e-01
 2  2  2     1.2574145994e-01
 2  2  3     9.7589155144e-02
 2  3  1    -1.6599547015e-03
 2  3  2     2.9976706809e-02
 2  3  3     3.5539997990e-02
 3  1  1     2.9976706809e-02
 3  1  2    -1.6599547015e-03
 3  1  3     3.5539997990e-02
 3  2  1    -1.6599547015e-03