 2102

    1
0.0000000000e+00 0.0000000000e+00 0.0000000000e+00
0.0000000000e+00 0.0000000000e+00 0.0000000000e+00
     1      1      1
 1  1  1     0.0000000000e+00
 1  1  2     0.0000000000e+00
 1  1  3     0.0000000000e+00
 1  2  1     0.0000000000e+00
 1  2  2     0.0000000000e+00
 1  2  3     4.2619909763e+01
 1  3  1     0.0000000000e+00
 1  3  2     4.2619909763e+01
 1  3  3     0.0000000000e+00
 2  1  1     0.0000000000e+00
 2  1  2     0.0000000000e+00
 2  1  3     4.2619909763e+01
 2  2  1     0.0000000000e+00
 2  2  2     0.0000000000e+00
 2  2  3     0.0000000000e+00
 2  3  1     4.2619909763e+01
 2  3  2     0.0000000000e+00
 2  3  3     0.0000000000e+00
 3  1  1     0.0000000000e+00
 3  1  2     4.2619909763e+01
 3  1  3     0.0000000000e+00
 3  2  1     4.2619909763e+01
 3  2  2     0.0000000000e+00
 3  2  3     0.0000000000e+00
 3  3  1     0.0000000000e+00
 3  3  2     0.0000000000e+00
 3  3  3     0.0000000000e+00

    2
0.0000000000e+00 0.0000000000e+00 0.0000000000e+00
0.0000000000e+00 0.0000000000e+00 0.0000000000e+00
     1      1      2
 1  1  1    -5.1957641992e+00
 1  1  2    -7.3769196663e+00
 1  1  3    -7.3769196663e+00
 1  2  1    -8.2016036590e+00
 1  2  2    -8.2016036590e+00
 1  2  3    -1.0559274758e+01
 1  3  1    -8.2016036590e+00
 1  3  2    -1.0559274758e+01
 1  3  3    -8.2016036590e+00
 2  1  1    -8.2016036590e+00
 2  1  2    -8.2016036590e+00
 2  1  3    -1.0559274758e+01
 2  2  1    -7.3769196663e+00
 2  2  2    -5.1957641992e+00
 2  2  3    -7.3769196663e+00
 2  3  1    -1.0559274758e+01
 2  3  2    -8.2016036590e+00
 2  3  3    -8.2016036590e+00
 3  1  1    -8.2016036590e+00
 3  1  2    -1.0559274758e+01
 3  1  3    -8.2016036590e+00
 3  2  1    -1.0559274758e+01
 3  2  2    -8.2016036590e+00
 3  2  3    -8.2016036590e+00
 3  3  1    -7.3769196663e+00
 3  3  2    -7.3769196663e+00
 3  3  3    -5.1957641992e+00

    3
0.0000000000e+00 0.0000000000e+00 0.0000000000e+00
0.0000000000e+00 2.4085000000e+00 2.4085000000e+00
     1      1      1
 1  1  1     1.9524934567e-01
 1  1  2     8.2840254368e-02
 1  1  3     8.2840254368e-02
 1  2  1     1.0143083648e-02
 1  2  2    -1.5890914814e-02
 1  2  3     8.3823034064e-02
 1  3  1     1.0143083648e-02
 1  3  2     8.3823034064e-02
 1  3  3    -1.5890914814e-02
 2  1  1     1.0143083648e-02
 2  1  2    -1.5890914814e-02
 2  1  3     8.3823034064e-02
 2  2  1    -2.4683490637e-01
 2  2  2    -2.8613888889e-01
 2  2  3    -4.4356900827e-01
 2  3  1    -2.8802437090e-01
 2  3  2    -4.8695412470e-01
 2  3  3    -4.8695412470e-01
 3  1  1     1.0143083648e-02
 3  1  2     8.3823034064e-02
 3  1  3    -1.5890914814e-02
 3  2  1    -2.8802437090e-01
 3  2  2    -4.8695412470e-01
 3  2  3    -4.8695412470e-01
 3  3  1    -2.4683490637e-01
 3  3  2    -4.4356900827e-01
 3  3  3    -2.8613888889e-01

    4
0.0000000000e+00 0.0000000000e+00 0.0000000000e+00
0.0000000000e+00 2.4085000000e+00 2.4085000000e+00
     1      1      2
 1  1  1    -9.3967447280e-02
 1  1  2     3.2066547143e-02
 1  1  3     3.2066547143e-02
 1  2  1    -7.6433432296e-03
 1  2  2    -1.3995578231e-02
 1  2  3    -1.7324831412e-02
 1  3  1    -7.6433432296e-03
 1  3  2    -1.7324831412e-02
 1  3  3    -1.3995578231e-02
 2  1  1    -7.6433432296e-03
 2  1  2    -1.3995578231e-02
 2  1  3    -1.7324831412e-02
 2  2  1     9.9045314264e-03
 2  2  2    -2.6896815456e-02
 2  2  3    -1.7769923080e-01
 2  3  1     6.0440124957e-02
 2  3  2    -5.7026581806e-02
 2  3  3    -5.7026581806e-02
 3  1  1    -7.6433432296e-03
 3  1  2    -1.7324831412e-02
 3  1  3    -1.3995578231e-02
 3  2  1     6.0440124957e-02
 3  2  2    -5.7026581806e-02
 3  2  3    -5.7026581806e-02
 3  3  1     9.9045314264e-03
 3  3  2    -1.7769923080e-01
 3  3  3    -2.6896815456e-02

    5
0.0000000000e+00 0.0000000000e+00 0.0000000000e+00
0.0000000000e+00 -4.8170000000e+00 -4.8170000000e+00
     1      1      2
 1  1  1    -9.3967447280e-02
 1  1  2    -3.2066547143e-02
 1  1  3    -3.2066547143e-02
 1  2  1     7.6433432296e-03
 1  2  2    -1.3995578231e-02
 1  2  3    -1.7324831412e-02
 1  3  1     7.6433432296e-03
 1  3  2    -1.7324831412e-02
 1  3  3    -1.3995578231e-02
 2  1  1     7.6433432296e-03
 2  1  2    -1.3995578231e-02
 2  1  3    -1.7324831412e-02
 2  2  1     9.9045314264e-03
 2  2  2     2.6896815456e-02
 2  2  3     1.7769923080e-01
 2  3  1     6.0440124957e-02
 2  3  2     5.7026581806e-02
 2  3  3     5.7026581806e-02
 3  1  1     7.6433432296e-03
 3  1  2    -1.7324831412e-02
 3  1  3    -1.3995578231e-02
 3  2  1     6.0440124957e-02
 3  2  2     5.7026581806e-02
 3  2  3     5.7026581806e-02
 3  3  1     9.9045314264e-03
 3  3  2     1.7769923080e-01
 3  3  3     2.6896815456e-02

    6
0.0000000000e+00 0.0000000000e+00 0.0000000000e+00
0.0000000000e+00 -2.4085000000e+00 -2.4085000000e+00
     1      1      1
 1  1  1     1.9524934567e-01
 1  1  2    -8.2840254368e-02
 1  1  3    -8.2840254368e-02
 1  2  1    -1.0143083648e-02
 1  2  2    -1.5890914814e-02
 1  2  3     8.3823034064e-02
 1  3  1    -1.0143083648e-02
 1  3  2     8.3823034064e-02
 1  3  3    -1.5890914814e-02
 2  1  1    -1.0143083648e-02
 2  1  2    -1.5890914814e-02
 2  1  3     8.3823034064e-02
 2  2  1    -2.4683490637e-01
 2  2  2     2.8613888889e-01
 2  2  3     4.4356900827e-01
 2  3  1    -2.8802437090e-01
 2  3  2     4.8695412470e-01
 2  3  3     4.8695412470e-01
 3  1  1    -1.0143083648e-02
 3  1  2     8.3823034064e-02
 3  1  3    -1.5890914814e-02
 3  2  1    -2.8802437090e-01
 3  2  2     4.8695412470e-01
 3  2  3     4.8695412470e-01
 3  3  1    -2.4683490637e-01
 3  3  2     4.4356900827e-01
 3  3  3     2.8613888889e-01

    7
0.0000000000e+00 0.0000000000e+00 0.0000000000e+00
0.0000000000e+00 -2.4085000000e+00 -2.4085000000e+00
     1      1      2
 1  1  1    -5.1957641992e+00
 1  1  2     7.3769196663e+00
 1  1  3     7.3769196663e+00
 1  2  1     8.2016036590e+00
 1  2  2    -8.2016036590e+00
 1  2  3    -1.0559274758e+01
 1  3  1     8.2016036590e+00
 1  3  2    -1.0559274758e+01
 1  3  3    -8.2016036590e+00
 2  1  1     8.2016036590e+00
 2  1  2    -8.2016036590e+00
 2  1  3    -1.0559274758e+01
 2  2  1    -7.3769196663e+00
 2  2  2     5.1957641992e+00
 2  2  3     7.3769196663e+00
 2  3  1    -1.0559274758e+01
 2  3  2     8.2016036590e+00
 2  3  3     8.2016036590e+00
 3  1  1     8.2016036590e+00
 3  1  2    -1.0559274758e+01
 3  1  3    -8.2016036590e+00
 3  2  1    -1.0559274758e+01
 3  2  2     8.2016036590e+00
 3  2  3     8.2016036590e+00
 3  3  1    -7.3769196663e+00
 3  3  2     7.3769196663e+00
 3  3  3     5.1957641992e+00

    8
0.0000000000e+00 0.0000000000e+00 0.0000000000e+00
2.4085000000e+00 0.0000000000e+00 2.4085000000e+00
     1      1      1
 1  1  1    -2.8613888889e-01
 1  1  2    -2.4683490637e-01
 1  1  3    -4.4356900827e-01
 1  2  1    -1.5890914814e-02
 1  2  2     1.0143083648e-02
 1  2  3     8.3823034064e-02
 1  3  1    -4.8695412470e-01
 1  3  2    -2.8802437090e-01
 1  3  3    -4.8695412470e-01
 2  1  1    -1.5890914814e-02
 2  1  2     1.0143083648e-02
 2  1  3     8.3823034064e-02
 2  2  1     8.2840254368e-02
 2  2  2     1.9524934567e-01
 2  2  3     8.2840254368e-02
 2  3  1     8.3823034064e-02
 2  3  2     1.0143083648e-02
 2  3  3    -1.5890914814e-02
 3  1  1    -4.8695412470e-01
 3  1  2    -2.8802437090e-01
 3  1  3    -4.8695412470e-01
 3  2  1     8.3823034064e-02
 3  2  2     1.0143083648e-02
 3  2  3    -1.5890914814e-02
 3  3  1    -4.4356900827e-01
 3  3  2    -2.4683490637e-01
 3  3  3    -2.8613888889e-01

    9
0.0000000000e+00 0.0000000000e+00 0.0000000000e+00
2.4085000000e+00 0.0000000000e+00 2.4085000000e+00
     1      1      2
 1  1  1    -2.6896815456e-02
 1  1  2     9.9045314264e-03
 1  1  3    -1.7769923080e-01
 1  2  1    -1.3995578231e-02
 1  2  2    -7.6433432296e-03
 1  2  3    -1.7324831412e-02
 1  3  1    -5.7026581806e-02
 1  3  2     6.0440124957e-02
 1  3  3    -5.7026581806e-02
 2  1  1    -1.3995578231e-02
 2  1  2    -7.6433432296e-03
 2  1  3    -1.7324831412e-02
 2  2  1     3.2066547143e-02
 2  2  2    -9.3967447280e-02
 2  2  3     3.2066547143e-02
 2  3  1    -1.7324831412e-02
 2  3  2    -7.6433432296e-03
 2  3  3    -1.3995578231e-02
 3  1  1    -5.7026581806e-02
 3  1  2     6.0440124957e-02
 3  1  3    -5.7026581806e-02
 3  2  1    -1.7324831412e-02
 3  2  2    -7.6433432296e-03
 3  2  3    -1.3995578231e-02
 3  3  1    -1.7769923080e-01
 3  3  2     9.9045314264e-03
 3  3  3    -2.6896815456e-02

   10
0.0000000000e+00 0.0000000000e+00 0.0000000000e+00
2.4085000000e+00 -4.8170000000e+00 -2.4085000000e+00
     1      1      2
 1  1  1    -2.6896815456e-02
 1  1  2     1.7769923080e-01
 1  1  3    -9.9045314264e-03
 1  2  1     5.7026581806e-02
 1  2  2    -5.7026581806e-02
 1  2  3     6.0440124957e-02
 1  3  1     1.3995578231e-02
 1  3  2    -1.7324831412e-02
 1  3  3    -7.6433432296e-03
 2  1  1     5.7026581806e-02
 2  1  2    -5.7026581806e-02
 2  1  3     6.0440124957e-02
 2  2  1    -1.7769923080e-01
 2  2  2     2.6896815456e-02
 2  2  3    -9.9045314264e-03
 2  3  1    -1.7324831412e-02
 2  3  2     1.3995578231e-02
 2  3  3     7.6433432296e-03
 3  1  1     1.3995578231e-02
 3  1  2    -1.7324831412e-02
 3  1  3    -7.6433432296e-03
 3  2  1    -1.7324831412e-02
 3  2  2     1.3995578231e-02
 3  2  3     7.6433432296e-03
 3  3  1     3.2066547143e-02
 3  3  2    -3.2066547143e-02
 3  3  3     9.3967447280e-02

   11
0.0000000000e+00 0.0000000000e+00 0.0000000000e+00
2.4085000000e+00 -2.4085000000e+00 0.0000000000e+00
     1      1      1
 1  1  1    -2.8613888889e-01
 1  1  2     4.4356900827e-01
 1  1  3     2.4683490637e-01
 1  2  1     4.8695412470e-01
 1  2  2    -4.8695412470e-01
 1  2  3    -2.8802437090e-01
 1  3  1     1.5890914814e-02
 1  3  2     8.3823034064e-02
 1  3  3     1.0143083648e-02
 2  1  1     4.8695412470e-01
 2  1  2    -4.8695412470e-01
 2  1  3    -2.8802437090e-01
 2  2  1    -4.4356900827e-01
 2  2  2     2.8613888889e-01
 2  2  3     2.4683490637e-01
 2  3  1     8.3823034064e-02
 2  3  2     1.5890914814e-02
 2  3  3    -1.0143083648e-02
 3  1  1     1.5890914814e-02
 3  1  2     8.3823034064e-02
 3  1  3     1.0143083648e-02
 3  2  1     8.3823034064e-02
 3  2  2     1.5890914814e-02
 3  2  3    -1.0143083648e-02
 3  3  1     8.2840254368e-02
 3  3  2    -8.2840254368e-02
 3  3  3    -1.9524934567e-01

   12
0.0000000000e+00 0.0000000000e+00 0.0000000000e+00
2.4085000000e+00 -2.4085000000e+00 0.0000000000e+00
     1      1      2
 1  1  1     1.2512338694e-01
 1  1  2    -7.4982980271e-02
 1  1  3     7.4982980271e-02
 1  2  1     3.9797874865e-02
 1  2  2    -1.0537267041e-02
 1  2  3    -9.8948865387e-03
 1  3  1    -3.9797874865e-02
 1  3  2    -9.8948865387e-03
 1  3  3    -1.0537267041e-02
 2  1  1     3.9797874865e-02
 2  1  2    -1.0537267041e-02
 2  1  3    -9.8948865387e-03
 2  2  1    -3.8175907246e-02
 2  2  2     2.1722969021e-02
 2  2  3    -6.1729873954e-02
 2  3  1     1.5854854755e-02
 2  3  2    -7.2665248876e-02
 2  3  3     7.2665248876e-02
 3  1  1    -3.9797874865e-02
 3  1  2    -9.8948865387e-03
 3  1  3    -1.0537267041e-02
 3  2  1     1.5854854755e-02
 3  2  2    -7.2665248876e-02
 3  2  3     7.2665248876e-02
 3  3  1    -3.8175907246e-02
 3  3  2     6.1729873954e-02
 3  3  3    -2.1722969021e-02

   13
0.0000000000e+00 0.0000000000e+00 0.0000000000e+00
-4.8170000000e+00 0.0000000000e+00 -4.8170000000e+00
     1      1      2
 1  1  1     2.6896815456e-02
 1  1  2     9.9045314264e-03
 1  1  3     1.7769923080e-01
 1  2  1    -1.3995578231e-02
 1  2  2     7.6433432296e-03
 1  2  3    -1.7324831412e-02
 1  3  1     5.7026581806e-02
 1  3  2     6.0440124957e-02
 1  3  3     5.7026581806e-02
 2  1  1    -1.3995578231e-02
 2  1  2     7.6433432296e-03
 2  1  3    -1.7324831412e-02
 2  2  1    -3.2066547143e-02
 2  2  2    -9.3967447280e-02
 2  2  3    -3.2066547143e-02
 2  3  1    -1.7324831412e-02
 2  3  2     7.6433432296e-03
 2  3  3    -1.3995578231e-02
 3  1  1     5.7026581806e-02
 3  1  2     6.0440124957e-02
 3  1  3     5.7026581806e-02
 3  2  1    -1.7324831412e-02
 3  2  2     7.6433432296e-03
 3  2  3    -1.3995578231e-02
 3  3  1     1.7769923080e-01
 3  3  2     9.9045314264e-03
 3  3  3     2.6896815456e-02

   14
0.0000000000e+00 0.0000000000e+00 0.0000000000e+00
-4.8170000000e+00 2.4085000000e+00 -2.4085000000e+00
     1      1      2
 1  1  1     2.6896815456e-02
 1  1  2    -1.7769923080e-01
 1  1  3    -9.9045314264e-03
 1  2  1    -5.7026581806e-02
 1  2  2     5.7026581806e-02
 1  2  3     6.0440124957e-02
 1  3  1     1.3995578231e-02
 1  3  2    -1.7324831412e-02
 1  3  3     7.6433432296e-03
 2  1  1    -5.7026581806e-02
 2  1  2     5.7026581806e-02
 2  1  3     6.0440124957e-02
 2  2  1     1.7769923080e-01
 2  2  2    -2.6896815456e-02
 2  2  3    -9.9045314264e-03
 2  3  1    -1.7324831412e-02
 2  3  2     1.3995578231e-02
 2  3  3    -7.6433432296e-03
 3  1  1     1.3995578231e-02
 3  1  2    -1.7324831412e-02
 3  1  3     7.6433432296e-03
 3  2  1    -1.7324831412e-02
 3  2  2     1.3995578231e-02
 3  2  3    -7.6433432296e-03
 3  3  1    -3.2066547143e-02
 3  3  2     3.2066547143e-02
 3  3  3     9.3967447280e-02

   15
0.0000000000e+00 0.0000000000e+00 0.0000000000e+00
-2.4085000000e+00 0.0000000000e+00 -2.4085000000e+00
     1      1      1
 1  1  1     2.8613888889e-01
 1  1  2    -2.4683490637e-01
 1  1  3     4.4356900827e-01
 1  2  1    -1.5890914814e-02
 1  2  2    -1.0143083648e-02
 1  2  3     8.3823034064e-02
 1  3  1     4.8695412470e-01
 1  3  2    -2.8802437090e-01
 1  3  3     4.8695412470e-01
 2  1  1    -1.5890914814e-02
 2  1  2    -1.0143083648e-02
 2  1  3     8.3823034064e-02
 2  2  1    -8.2840254368e-02
 2  2  2     1.9524934567e-01
 2  2  3    -8.2840254368e-02
 2  3  1     8.3823034064e-02
 2  3  2    -1.0143083648e-02
 2  3  3    -1.5890914814e-02
 3  1  1     4.8695412470e-01
 3  1  2    -2.8802437090e-01
 3  1  3     4.8695412470e-01
 3  2  1     8.3823034064e-02
 3  2  2    -1.0143083648e-02
 3  2  3    -1.5890914814e-02
 3  3  1     4.4356900827e-01
 3  3  2    -2.4683490637e-01
 3  3  3     2.8613888889e-01

   16
0.0000000000e+00 0.0000000000e+00 0.0000000000e+00
-2.4085000000e+00 0.0000000000e+00 -2.4085000000e+00
     1      1      2
 1  1  1     5.1957641992e+00
 1  1  2    -7.3769196663e+00
 1  1  3     7.3769196663e+00
 1  2  1    -8.2016036590e+00
 1  2  2     8.2016036590e+00
 1  2  3    -1.0559274758e+01
 1  3  1     8.2016036590e+00
 1  3  2    -1.0559274758e+01
 1  3  3     8.2016036590e+00
 2  1  1    -8.2016036590e+00
 2  1  2     8.2016036590e+00
 2  1  3    -1.0559274758e+01
 2  2  1     7.3769196663e+00
 2  2  2    -5.1957641992e+00
 2  2  3     7.3769196663e+00
 2  3  1    -1.0559274758e+01
 2  3  2     8.2016036590e+00
 2  3  3    -8.2016036590e+00
 3  1  1     8.2016036590e+00
 3  1  2    -1.0559274758e+01
 3  1  3     8.2016036590e+00
 3  2  1    -1.0559274758e+01
 3  2  2     8.2016036590e+00
 3  2  3    -8.2016036590e+00
 3  3  1     7.3769196663e+00
 3  3  2    -7.3769196663e+00
 3  3  3     5.1957641992e+00

   17
0.0000000000e+00 0.0000000000e+00 0.0000000000e+00
-2.4085000000e+00 2.4085000000e+00 0.0000000000e+00
     1      1      1
 1  1  1     2.8613888889e-01
 1  1  2    -4.4356900827e-01
 1  1  3     2.4683490637e-01
 1  2  1    -4.8695412470e-01
 1  2  2     4.8695412470e-01
 1  2  3    -2.8802437090e-01
 1  3  1     1.5890914814e-02
 1  3  2     8.3823034064e-02
 1  3  3    -1.0143083648e-02
 2  1  1    -4.8695412470e-01
 2  1  2     4.8695412470e-01
 2  1  3    -2.8802437090e-01
 2  2  1     4.4356900827e-01
 2  2  2    -2.8613888889e-01
 2  2  3     2.4683490637e-01
 2  3  1     8.3823034064e-02
 2  3  2     1.5890914814e-02
 2  3  3     1.0143083648e-02
 3  1  1     1.5890914814e-02
 3  1  2     8.3823034064e-02
 3  1  3    -1.0143083648e-02
 3  2  1     8.3823034064e-02
 3  2  2     1.5890914814e-02
 3  2  3     1.0143083648e-02
 3  3  1    -8.2840254368e-02
 3  3  2     8.2840254368e-02
 3  3  3    -1.9524934567e-01

   18
0.0000000000e+00 0.0000000000e+00 0.0000000000e+00
-2.4085000000e+00 2.4085000000e+00 0.0000000000e+00
     1      1      2
 1  1  1     2.1722969021e-02
 1  1  2    -3.8175907246e-02
 1  1  3    -6.1729873954e-02
 1  2  1    -1.0537267041e-02
 1  2  2     3.9797874865e-02
 1  2  3    -9.8948865387e-03
 1  3  1    -7.2665248876e-02
 1  3  2     1.5854854755e-02
 1  3  3     7.2665248876e-02
 2  1  1    -1.0537267041e-02
 2  1  2     3.9797874865e-02
 2  1  3    -9.8948865387e-03
 2  2  1    -7.4982980271e-02
 2  2  2     1.2512338694e-01
 2  2  3     7.4982980271e-02
 2  3  1    -9.8948865387e-03
 2  3  2    -3.9797874865e-02
 2  3  3    -1.0537267041e-02
 3  1  1    -7.2665248876e-02
 3  1  2     1.5854854755e-02
 3  1  3     7.2665248876e-02
 3  2  1    -9.8948865387e-03
 3  2  2    -3.9797874865e-02
 3  2  3    -1.0537267041e-02
 3  3  1     6.1729873954e-02
 3  3  2    -3.8175907246e-02
 3  3  3    -2.1722969021e-02

   19
0.0000000000e+00 0.0000000000e+00 0.0000000000e+00
-2.4085000000e+00 -2.4085000000e+00 -4.8170000000e+00
     1      1      2
 1  1  1     2.1722969021e-02
 1  1  2     6.1729873954e-02
 1  1  3     3.8175907246e-02
 1  2  1     7.2665248876e-02
 1  2  2     7.2665248876e-02
 1  2  3     1.5854854755e-02
 1  3  1     1.0537267041e-02
 1  3  2    -9.8948865387e-03
 1  3  3     3.9797874865e-02
 2  1  1     7.2665248876e-02
 2  1  2     7.2665248876e-02
 2  1  3     1.5854854755e-02
 2  2  1     6.1729873954e-02
 2  2  2     2.1722969021e-02
 2  2  3     3.8175907246e-02
 2  3  1    -9.8948865387e-03
 2  3  2     1.0537267041e-02
 2  3  3     3.9797874865e-02
 3  1  1     1.0537267041e-02
 3  1  2    -9.8948865387e-03
 3  1  3     3.9797874865e-02
 3  2  1    -9.8948865387e-03
 3  2  2     1.0537267041e-02
 3  2  3     3.9797874865e-02
 3  3  1    -7.4982980271e-02
 3  3  2    -7.4982980271e-02
 3  3  3    -1.2512338694e-01

   20
0.0000000000e+00 0.0000000000e+00 0.0000000000e+00
2.4085000000e+00 2.4085000000e+00 0.0000000000e+00
     1      1      1
 1  1  1    -2.8613888889e-01
 1  1  2    -4.4356900827e-01
 1  1  3    -2.4683490637e-01
 1  2  1    -4.8695412470e-01
 1  2  2    -4.8695412470e-01
 1  2  3    -2.8802437090e-01
 1  3  1    -1.5890914814e-02
 1  3  2     8.3823034064e-02
 1  3  3     1.0143083648e-02
 2  1  1    -4.8695412470e-01
 2  1  2    -4.8695412470e-01
 2  1  3    -2.8802437090e-01
 2  2  1    -4.4356900827e-01
 2  2  2    -2.8613888889e-01
 2  2  3    -2.4683490637e-01
 2  3  1     8.3823034064e-02
 2  3  2    -1.5890914814e-02
 2  3  3     1.0143083648e-02
 3  1  1    -1.5890914814e-02
 3  1  2     8.3823034064e-02
 3  1  3     1.0143083648e-02
 3  2  1     8.3823034064e-02
 3  2  2    -1.5890914814e-02
 3  2  3     1.0143083648e-02
 3  3  1     8.2840254368e-02
 3  3  2     8.2840254368e-02
 3  3  3     1.9524934567e-01

   21
0.0000000000e+00 0.0000000000e+00 0.0000000000e+00
2.4085000000e+00 2.4085000000e+00 0.0000000000e+00
     1      1      2
 1  1  1    -2.6896815456e-02
 1  1  2    -1.7769923080e-01
 1  1  3     9.9045314264e-03
 1  2  1    -5.7026581806e-02
 1  2  2    -5.7026581806e-02
 1  2  3     6.0440124957e-02
 1  3  1    -1.3995578231e-02
 1  3  2    -1.7324831412e-02
 1  3  3    -7.6433432296e-03
 2  1  1    -5.7026581806e-02
 2  1  2    -5.7026581806e-02
 2  1  3     6.0440124957e-02
 2  2  1    -1.7769923080e-01
 2  2  2    -2.6896815456e-02
 2  2  3     9.9045314264e-03
 2  3  1    -1.7324831412e-02
 2  3  2    -1.3995578231e-02
 2  3  3    -7.6433432296e-03
 3  1  1    -1.3995578231e-02
 3  1  2    -1.7324831412e-02
 3  1  3    -7.6433432296e-03
 3  2  1    -1.7324831412e-02
 3  2  2    -1.3995578231e-02
 3  2  3    -7.6433432296e-03
 3  3  1     3.2066547143e-02
 3  3  2     3.2066547143e-02
 3  3  3    -9.3967447280e-02

   22
0.0000000000e+00 0.0000000000e+00 0.0000000000e+00
2.4085000000e+00 -2.4085000000e+00 -4.8170000000e+00
     1      1      2
 1  1  1    -2.6896815456e-02
 1  1  2    -9.9045314264e-03
 1  1  3     1.7769923080e-01
 1  2  1     1.3995578231e-02
 1  2  2    -7.6433432296e-03
 1  2  3    -1.7324831412e-02
 1  3  1     5.7026581806e-02
 1  3  2     6.0440124957e-02
 1  3  3    -5.7026581806e-02
 2  1  1     1.3995578231e-02
 2  1  2    -7.6433432296e-03
 2  1  3    -1.7324831412e-02
 2  2  1     3.2066547143e-02
 2  2  2     9.3967447280e-02
 2  2  3    -3.2066547143e-02
 2  3  1    -1.7324831412e-02
 2  3  2     7.6433432296e-03
 2  3  3     1.3995578231e-02
 3  1  1     5.7026581806e-02
 3  1  2     6.0440124957e-02
 3  1  3    -5.7026581806e-02
 3  2  1    -1.7324831412e-02
 3  2  2     7.6433432296e-03
 3  2  3     1.3995578231e-02
 3  3  1    -1.7769923080e-01
 3  3  2    -9.9045314264e-03
 3  3  3     2.6896815456e-02

   23
0.0000000000e+00 0.0000000000e+00 0.0000000000e+00
2.4085000000e+00 0.0000000000e+00 -2.4085000000e+00
     1      1      1
 1  1  1    -2.8613888889e-01
 1  1  2     2.4683490637e-01
 1  1  3     4.4356900827e-01
 1  2  1     1.5890914814e-02
 1  2  2     1.0143083648e-02
 1  2  3     8.3823034064e-02
 1  3  1     4.8695412470e-01
 1  3  2    -2.8802437090e-01
 1  3  3    -4.8695412470e-01
 2  1  1     1.5890914814e-02
 2  1  2     1.0143083648e-02
 2  1  3     8.3823034064e-02
 2  2  1     8.2840254368e-02
 2  2  2    -1.9524934567e-01
 2  2  3    -8.2840254368e-02
 2  3  1     8.3823034064e-02
 2  3  2    -1.0143083648e-02
 2  3  3     1.5890914814e-02
 3  1  1     4.8695412470e-01
 3  1  2    -2.8802437090e-01
 3  1  3    -4.8695412470e-01
 3  2  1     8.3823034064e-02
 3  2  2    -1.0143083648e-02
 3  2  3     1.5890914814e-02
 3  3  1    -4.4356900827e-01
 3  3  2     2.4683490637e-01
 3  3  3     2.8613888889e-01

   24
0.0000000000e+00 0.0000000000e+00 0.0000000000e+00
2.4085000000e+00 0.0000000000e+00 -2.4085000000e+00
     1      1      2
 1  1  1     1.2512338694e-01
 1  1  2     7.4982980271e-02
 1  1  3    -7.4982980271e-02
 1  2  1    -3.9797874865e-02
 1  2  2    -1.0537267041e-02
 1  2  3    -9.8948865387e-03
 1  3  1     3.9797874865e-02
 1  3  2    -9.8948865387e-03
 1  3  3    -1.0537267041e-02
 2  1  1    -3.9797874865e-02
 2  1  2    -1.0537267041e-02
 2  1  3    -9.8948865387e-03
 2  2  1    -3.8175907246e-02
 2  2  2    -2.1722969021e-02
 2  2  3     6.1729873954e-02
 2  3  1     1.5854854755e-02
 2  3  2     7.2665248876e-02
 2  3  3    -7.2665248876e-02
 3  1  1     3.9797874865e-02
 3  1  2    -9.8948865387e-03
 3  1  3    -1.0537267041e-02
 3  2  1     1.5854854755e-02
 3  2  2     7.2665248876e-02
 3  2  3    -7.2665248876e-02
 3  3  1    -3.8175907246e-02
 3  3  2    -6.1729873954e-02
 3  3  3     2.1722969021e-02

   25
0.0000000000e+00 0.0000000000e+00 0.0000000000e+00
4.8170000000e+00 0.0000000000e+00 0.0000000000e+00
     1      1      1
 1  1  1    -4.6213888889e-02
 1  1  2     0.0000000000e+00
 1  1  3     0.0000000000e+00
 1  2  1     0.0000000000e+00
 1  2  2    -5.8945177839e-02
 1  2  3     1.7642097186e-02
 1  3  1     0.0000000000e+00
 1  3  2     1.7642097186e-02
 1  3  3    -5.8945177839e-02
 2  1  1     0.0000000000e+00
 2  1  2    -5.8945177839e-02
 2  1  3     1.7642097186e-02
 2  2  1     2.6146318715e-02
 2  2  2     0.0000000000e+00
 2  2  3     0.0000000000e+00
 2  3  1    -2.9643519202e-02
 2  3  2     0.0000000000e+00
 2  3  3     0.0000000000e+00
 3  1  1     0.0000000000e+00
 3  1  2     1.7642097186e-02
 3  1  3    -5.8945177839e-02
 3  2  1    -2.9643519202e-02
 3  2  2     0.0000000000e+00
 3  2  3     0.0000000000e+00
 3  3  1     2.6146318715e-02
 3  3  2     0.0000000000e+00
 3  3  3     0.0000000000e+00

   26
0.0000000000e+00 0.0000000000e+00 0.0000000000e+00
-2.4085000000e+00 2.4085000000e+00 -4.8170000000e+00
     1      1      2
 1  1  1     9.3967447280e-02
 1  1  2     3.2066547143e-02
 1  1  3    -3.2066547143e-02
 1  2  1    -7.6433432296e-03
 1  2  2     1.3995578231e-02
 1  2  3    -1.7324831412e-02
 1  3  1     7.6433432296e-03
 1  3  2    -1.7324831412e-02
 1  3  3     1.3995578231e-02
 2  1  1    -7.6433432296e-03
 2  1  2     1.3995578231e-02
 2  1  3    -1.7324831412e-02
 2  2  1    -9.9045314264e-03
 2  2  2    -2.6896815456e-02
 2  2  3     1.7769923080e-01
 2  3  1     6.0440124957e-02
 2  3  2     5.7026581806e-02
 2  3  3    -5.7026581806e-02
 3  1  1     7.6433432296e-03
 3  1  2    -1.7324831412e-02
 3  1  3     1.3995578231e-02
 3  2  1     6.0440124957e-02
 3  2  2     5.7026581806e-02
 3  2  3    -5.7026581806e-02
 3  3  1    -9.9045314264e-03
 3  3  2    -1.7769923080e-01
 3  3  3     2.6896815456e-02

   27
0.0000000000e+00 0.0000000000e+00 0.0000000000e+00
0.0000000000e+00 2.4085000000e+00 -2.4085000000e+00
     1      1      1
 1  1  1    -1.9524934567e-01
 1  1  2     8.2840254368e-02
 1  1  3    -8.2840254368e-02
 1  2  1     1.0143083648e-02
 1  2  2     1.5890914814e-02
 1  2  3     8.3823034064e-02
 1  3  1    -1.0143083648e-02
 1  3  2     8.3823034064e-02
 1  3  3     1.5890914814e-02
 2  1  1     1.0143083648e-02
 2  1  2     1.5890914814e-02
 2  1  3     8.3823034064e-02
 2  2  1     2.4683490637e-01
 2  2  2    -2.8613888889e-01
 2  2  3     4.4356900827e-01
 2  3  1    -2.8802437090e-01
 2  3  2     4.8695412470e-01
 2  3  3    -4.8695412470e-01
 3  1  1    -1.0143083648e-02
 3  1  2     8.3823034064e-02
 3  1  3     1.5890914814e-02
 3  2  1    -2.8802437090e-01
 3  2  2     4.8695412470e-01
 3  2  3    -4.8695412470e-01
 3  3  1     2.4683490637e-01
 3  3  2    -4.4356900827e-01
 3  3  3     2.8613888889e-01

   28
0.0000000000e+00 0.0000000000e+00 0.0000000000e+00
0.0000000000e+00 2.4085000000e+00 -2.4085000000e+00
     1      1      2
 1  1  1    -2.1722969021e-02
 1  1  2    -3.8175907246e-02
 1  1  3     6.1729873954e-02
 1  2  1    -1.0537267041e-02
 1  2  2    -3.9797874865e-02
 1  2  3    -9.8948865387e-03
 1  3  1     7.2665248876e-02
 1  3  2     1.5854854755e-02
 1  3  3    -7.2665248876e-02
 2  1  1    -1.0537267041e-02
 2  1  2    -3.9797874865e-02
 2  1  3    -9.8948865387e-03
 2  2  1     7.4982980271e-02
 2  2  2     1.2512338694e-01
 2  2  3    -7.4982980271e-02
 2  3  1    -9.8948865387e-03
 2  3  2     3.9797874865e-02
 2  3  3    -1.0537267041e-02
 3  1  1     7.2665248876e-02
 3  1  2     1.5854854755e-02
 3  1  3    -7.2665248876e-02
 3  2  1    -9.8948865387e-03
 3  2  2     3.9797874865e-02
 3  2  3    -1.0537267041e-02
 3  3  1    -6.1729873954e-02
 3  3  2    -3.8175907246e-02
 3  3  3     2.1722969021e-02

   29
0.0000000000e+00 0.0000000000e+00 0.0000000000e+00
0.0000000000e+00 4.8170000000e+00 0.0000000000e+00
     1      1      1
 1  1  1     0.0000000000e+00
 1  1  2     2.6146318715e-02
 1  1  3     0.0000000000e+00
 1  2  1    -5.8945177839e-02
 1  2  2     0.0000000000e+00
 1  2  3     1.7642097186e-02
 1  3  1     0.0000000000e+00
 1  3  2    -2.9643519202e-02
 1  3  3     0.0000000000e+00
 2  1  1    -5.8945177839e-02
 2  1  2     0.0000000000e+00
 2  1  3     1.7642097186e-02
 2  2  1     0.0000000000e+00
 2  2  2    -4.6213888889e-02
 2  2  3     0.0000000000e+00
 2  3  1     1.7642097186e-02
 2  3  2     0.0000000000e+00
 2  3  3    -5.8945177839e-02
 3  1  1     0.0000000000e+00
 3  1  2    -2.9643519202e-02
 3  1  3     0.0000000000e+00
 3  2  1     1.7642097186e-02
 3  2  2     0.0000000000e+00
 3  2  3    -5.8945177839e-02
 3  3  1     0.0000000000e+00
 3  3  2     2.6146318715e-02
 3  3  3     0.0000000000e+00

   30
0.0000000000e+00 0.0000000000e+00 0.0000000000e+00
0.0000000000e+00 0.0000000000e+00 -4.8170000000e+00
     1      1      1
 1  1  1     0.0000000000e+00
 1  1  2     0.0000000000e+00
 1  1  3    -2.6146318715e-02
 1  2  1     0.0000000000e+00
 1  2  2     0.0000000000e+00
 1  2  3    -2.9643519202e-02
 1  3  1     5.8945177839e-02
 1  3  2     1.7642097186e-02
 1  3  3     0.0000000000e+00
 2  1  1     0.0000000000e+00
 2  1  2     0.0000000000e+00
 2  1  3    -2.9643519202e-02
 2  2  1     0.0000000000e+00
 2  2  2     0.0000000000e+00
 2  2  3    -2.6146318715e-02
 2  3  1     1.7642097186e-02
 2  3  2     5.8945177839e-02
 2  3  3     0.0000000000e+00
 3  1  1     5.8945177839e-02
 3  1  2     1.7642097186e-02
 3  1  3     0.0000000000e+00
 3  2  1     1.7642097186e-02
 3  2  2     5.8945177839e-02
 3  2  3     0.0000000000e+00
 3  3  1     0.0000000000e+00
 3  3  2     0.0000000000e+00
 3  3  3     4.6213888889e-02

   31
0.0000000000e+00 0.0000000000e+00 0.0000000000e+00
0.0000000000e+00 0.0000000000e+00 -4.8170000000e+00
     1      1      2
 1  1  1    -2.1722969021e-02
 1  1  2    -6.1729873954e-02
 1  1  3     3.8175907246e-02
 1  2  1    -7.2665248876e-02
 1  2  2    -7.2665248876e-02
 1  2  3     1.5854854755e-02
 1  3  1     1.0537267041e-02
 1  3  2    -9.8948865387e-03
 1  3  3    -3.9797874865e-02
 2  1  1    -7.2665248876e-02
 2  1  2    -7.2665248876e-02
 2  1  3     1.5854854755e-02
 2  2  1    -6.1729873954e-02
 2  2  2    -2.1722969021e-02
 2  2  3     3.8175907246e-02
 2  3  1    -9.8948865387e-03
 2  3  2     1.0537267041e-02
 2  3  3    -3.9797874865e-02
 3  1  1     1.0537267041e-02
 3  1  2    -9.8948865387e-03
 3  1  3    -3.9797874865e-02
 3  2  1    -9.8948865387e-03
 3  2  2     1.0537267041e-02
 3  2  3    -3.9797874865e-02
 3  3  1     7.4982980271e-02
 3  3  2     7.4982980271e-02
 3  3  3    -1.2512338694e-01

   32
0.0000000000e+00 0.0000000000e+00 0.0000000000e+00
-4.8170000000e+00 -4.8170000000e+00 0.0000000000e+00
     1      1      2
 1  1  1     2.6896815456e-02
 1  1  2     1.7769923080e-01
 1  1  3     9.9045314264e-03
 1  2  1     5.7026581806e-02
 1  2  2     5.7026581806e-02
 1  2  3     6.0440124957e-02
 1  3  1    -1.3995578231e-02
 1  3  2    -1.7324831412e-02
 1  3  3     7.6433432296e-03
 2  1  1     5.7026581806e-02
 2  1  2     5.7026581806e-02
 2  1  3     6.0440124957e-02
 2  2  1     1.7769923080e-01
 2  2  2     2.6896815456e-02
 2  2  3     9.9045314264e-03
 2  3  1    -1.7324831412e-02
 2  3  2    -1.3995578231e-02
 2  3  3     7.6433432296e-03
 3  1  1    -1.3995578231e-02
 3  1  2    -1.7324831412e-02
 3  1  3     7.6433432296e-03
 3  2  1    -1.7324831412e-02