BEGIN_CFG
 Size
    128
 Supercell
         -0.000044      9.622510      9.622600
         9.622360      0.000027      9.622520
         9.622490      9.622570      -0.000105
 AtomData:  id type       cartes_x      cartes_y      cartes_z           fx          fy          fz
             1            0 9.646800      9.564350      19.133000       -0.127145      -0.028564      0.833766
             2            0 12.013100      2.437940      9.628870       0.087251      0.270822      0.121564
             3            0 14.390200      4.828840      9.581210       0.476534      -0.474195      0.456364
             4            0 16.778200      7.266570      9.612440       0.478293      -0.336516      0.355033
             5            0 11.953600      9.654300      2.385730       0.060615      -0.643300      0.212207
             6            0 4.776040      11.997500      12.014000       0.355947      0.551559      0.532667
             7            0 7.231810      14.480400      11.995600       -0.559898      -0.472231      -0.186078
             8            0 9.718290      16.854800      12.001200       -0.437763      -0.598416      0.408491
             9            0 4.843030      9.603670      14.378700       -0.195876      -0.091637      0.241279
             10            0 7.235470      12.035100      14.365200       -0.072824      0.002350      0.990886
             11            0 9.599930      14.400100      14.423800       -0.141418      -0.004810      -0.326833
             12            0 11.994000      7.270430      4.859710       0.227057      -0.322238      0.189702
             13            0 7.164100      0.039270      7.188780       -0.127802      -0.444088      0.145771
             14            0 9.638320      12.034600      16.841800       -0.319494      -0.492519      0.777700
             15            0 11.975500      4.808830      7.195580       0.090761      -0.137056      -0.183901
             16            0 14.382700      16.792900      16.821400       0.603675      0.247099      0.219910
             17            0 9.613930      2.418450      12.003300       -0.239831      -0.104282      -0.495022
             18            0 2.400580      4.793010      2.449830       -0.146867      0.271752      -0.026023
             19            0 4.818360      7.234040      2.436060       -0.598413      -0.138046      -0.032783
             20            0 7.271240      9.590110      2.432330       -0.210301      -0.361543      -0.172004
             21            0 12.007600      12.004000      4.787940       0.280557      0.021592      0.424919
             22            0 4.865480      4.780000      4.799310       -0.218768      0.461618      0.129698
             23            0 7.265680      7.248360      4.807910       -0.423173      -0.518298      0.388871
             24            0 9.586850      9.652290      4.814840       0.465344      -0.226273      0.395425
             25            0 4.847310      2.433240      7.213540       -0.437444      -0.431596      -0.113600
             26            0 7.273070      4.763330      7.248260       -0.111220      -0.074099      0.282186
             27            0 9.654010      7.271810      7.222920       0.007347      -0.223192      -0.339941
             28            0 12.062000      9.667400      7.246310       -0.101751      -0.015989      -0.187984
             29            0 7.226050      2.418070      9.630350       0.204502      -0.312561      0.456043
             30            0 9.657020      4.899170      9.613930       -0.138544      -0.386685      0.006159
             31            0 12.020600      7.189200      9.622120       0.156875      -0.212653      -0.108610
             32            0 14.449700      9.616860      9.637500       -0.558171      0.530513      0.125028
             33            0 9.619340      14.453100      4.836610       0.004403      -0.900773      -0.270280
             34            0 12.007500      7.264600      14.437300       -0.318847      0.021998      -0.160754
             35            0 14.445800      9.662110      14.436500       -0.403929      0.214610      -0.050550
             36            0 16.906600      12.038000      14.369700       -0.722329      0.060000      0.270751
             37            0 11.983800      14.397800      7.200110       0.217272      0.290030      -0.214533
             38            0 4.814710      7.181110      7.155770       -0.043280      0.113154      0.239965
             39            0 7.184210      9.643820      7.210770       -0.143765      -0.351768      0.152119
             40            0 9.566850      12.012600      7.314470       0.330647      0.033155      -0.547604
             41            0 4.813190      4.814540      9.590280       -0.491423      -0.312741      0.338681
             42            0 7.174200      7.221170      9.617570       0.245497      0.105745      -0.070202
             43            0 9.658470      9.606440      9.641560       0.072705      -0.267828      -0.216411
             44            0 12.066800      12.066000      9.618250       -0.601146      0.240584      0.081347
             45            0 7.221890      4.821420      11.990100       0.072057      0.673206      0.150934
             46            0 9.664160      7.221270      12.043700       -0.450820      -0.413221      0.032032
             47            0 12.003600      9.591370      11.976100       -0.053448      -0.242177      0.322550
             48            0 14.460100      12.031800      12.015100       -0.141840      -0.364283      0.230661
             49            0 9.576510      7.242820      16.789200       0.669021      -0.112457      0.600511
             50            0 2.460770      9.618330      7.187440       0.055971      0.338975      0.496032
             51            0 4.859640      12.050400      7.198830       0.055484      0.212801      -0.114426
             52            0 7.221550      14.432700      7.274880       0.390557      -0.316214      -0.375944
             53            0 12.073900      16.738600      9.572790       -0.418159      0.704430      0.778599
             54            0 4.723660      9.624060      9.669960       0.641143      0.308458      -0.236037
             55            0 7.233940      11.987100      9.705800       -0.217646      0.045828      -0.885287
             56            0 9.595820      14.484400      9.614790       0.273250      0.352685      0.482639
             57            0 14.388100      16.834000      12.078100       0.580664      0.368023      -0.454932
             58            0 7.292000      9.615810      12.006500       -0.271564      0.240246      0.397195
             59            0 9.626400      12.037900      11.947800       0.050470      -0.007449      0.142199
             60            0 12.010800      14.423700      12.086800       0.399736      -0.395684      0.162270
             61            0 7.261570      7.194410      14.429000       -0.112244      -0.030798      -0.078298
             62            0 9.576240      9.660810      14.465700       0.290512      0.245814      -0.144579
             63            0 12.011900      11.999200      14.430400       0.183743      -0.217548      0.264493
             64            0 14.441900      14.411700      14.448400       -0.077326      0.627732      -0.508574
             65            1 1.135540      1.196530      1.126070       0.643454      0.078676      0.315858
             66            1 3.599310      3.661060      1.243270       0.056811      -0.813084      -0.620902
             67            1 5.960020      6.030970      1.211180       0.453252      0.081134      -0.404049
             68            1 8.498630      8.372200      1.190860       -0.768284      0.515070      -0.200434
             69            1 3.580130      1.167990      3.599490       0.041675      0.142345      -0.317327
             70            1 6.054530      3.596160      3.583070       -0.521898      0.323182      -0.441276
             71            1 8.417790      6.026310      3.548480       0.617636      0.177322      0.551455
             72            1 10.805900      8.418030      3.679640       -0.012876      0.737542      -0.911446
             73            1 5.969700      1.229090      5.970120       0.793685      -0.112612      -0.160683
             74            1 8.442040      3.570200      6.044140       -0.364553      0.174910      -0.738100
             75            1 10.758500      6.009690      5.986000       0.686563      0.172991      0.177975
             76            1 13.253600      8.454880      6.042120       -0.154528      -0.248550      -0.470652
             77            1 8.363120      1.154760      8.455060       0.788771      0.695075      -1.102835
             78            1 10.808500      3.638320      8.447600       0.070088      -0.252160      -0.395486
             79            1 13.160500      5.981960      8.399070       0.590675      0.156408      -0.286318
             80            1 15.559000      8.460010      8.431410       0.747629      -0.774505      -0.997998
             81            1 1.176400      3.560640      3.590450       0.301940      0.702946      0.557250
             82            1 3.567990      6.030450      3.643950       0.675546      -0.159309      -0.072067
             83            1 5.970280      8.440930      3.678130       1.105062      -0.265451      -0.948369
             84            1 8.452680      10.806600      3.585350       -0.295790      0.473572      -0.177930
             85            1 3.664100      3.581070      5.984790       -1.147289      0.313972      0.157293
             86            1 6.090780      5.940200      6.060290       -0.350540      0.811256      -0.914466
             87            1 8.434980      8.461570      6.045700       -0.366372      -0.182236      -0.286086
             88            1 10.787500      10.842200      6.033750       0.380175      0.058715      0.389968
             89            1 6.007780      3.553810      8.449750       0.566904      1.011257      -0.229168
             90            1 8.485970      6.045530      8.372040       -1.155349      0.153334      0.876548
             91            1 10.894900      8.407310      8.424370       -0.642307      0.509069      0.030306
             92            1 13.256700      10.888400      8.445100       0.135056      -0.427485      -0.326961
             93            1 8.444790      3.707820      10.793300       -0.284027      -1.129599      0.008097
             94            1 10.852400      6.013130      10.852800       0.076278      0.234721      0.105835
             95            1 13.227900      8.365060      10.764300       0.190982      0.669422      1.117917
             96            1 15.700000      10.768800      10.836600       -0.498951      0.706658      0.337560
             97            1 1.168320      6.049480      5.998150       0.446542      -0.441813      0.164531
             98            1 3.641260      8.438030      5.966720       -0.088702      -0.193163      0.375601
             99            1 6.057020      10.866300      5.984270       -0.345783      -0.053100      -0.201866
             100            1 8.398200      13.179100      6.035610       0.550486      0.945096      0.216447
             101            1 3.595020      5.996600      8.362860       0.636211      -0.625210      -0.214608
             102            1 5.917440      8.445000      8.392080       0.673329      -0.249007      0.477897
             103            1 8.381420      10.752400      8.461420       0.376489      0.510896      0.263313
             104            1 10.761700      13.286900      8.486700       0.778826      -0.953793      -1.035728
             105            1 5.940870      6.005370      10.848100       0.716012      0.324516      -0.530723
             106            1 8.469070      8.390990      10.862800       -0.440813      0.081510      -1.052108
             107            1 10.895200      10.837500      10.782000       -0.931328      -0.065627      0.040170
             108            1 13.209300      13.231000      10.855900       0.778568      0.381320      -0.196671
             109            1 8.465760      5.994030      13.217400       -0.509396      0.152839      0.008454
             110            1 10.719900      8.463440      13.249600       1.588306      -0.153940      -0.153653
             111            1 13.153800      10.786500      13.207200       1.391896      0.431641      -0.015640
             112            1 15.684500      13.294700      13.193600       -0.615988      -1.190536      0.332575
             113            1 1.284210      8.353690      8.374360       -0.608270      0.485412      -0.117486
             114            1 3.648100      10.945000      8.414940       -0.648409      -1.584270      0.239941
             115            1 6.075880      13.173700      8.446640       -0.870724      0.867719      0.140072
             116            1 8.422430      15.690700      8.436590       -0.544204      0.022665      -0.369786
             117            1 3.541830      8.364240      10.866400       0.205707      0.754705      -0.538971
             118            1 6.029560      10.831100      10.885200       -0.520313      -0.814236      -0.548203
             119            1 8.393330      13.290700      10.750700       0.475476      -0.465031      1.152308
             120            1 10.902600      15.587600      10.856000       -0.964928      0.407200      -0.579669
             121            1 6.107350      8.408110      13.187400       -0.953744      -0.126092      0.525799
             122            1 8.448510      10.866200      13.214700       -0.146517      -0.429152      -0.355744
             123            1 10.810200      13.127300      13.238700       -0.142321      1.561388      -0.151465
             124            1 13.182600      15.717400      13.262100       0.359080      -1.277473      0.643837
             125            1 8.408410      8.443850      15.631300       -0.622338      0.162168      0.136113
             126            1 10.827700      10.826200      15.669200       0.078579      -0.246424      -0.122771
             127            1 13.233300      13.227200      15.620600       -0.147742      -0.041115      0.124580
             128            1 15.684100      15.580900      15.631100       -0.706824      0.715272      0.384487
 Energy
      -727.397449
 PlusStress:  xx          yy          zz          yz          xz          xy
      7.026530      7.428800      7.870490    0.857340      1.404850      -2.675400
 Feature   EFS_by	VASP
 Feature   mindist	1.476570
END_CFG

BEGIN_CFG
 Size
    128
 Supercell
         -0.000078      9.628850      9.628990
         9.628600      0.000012      9.628900
         9.628720      9.628880      -0.000107
 AtomData:  id type       cartes_x      cartes_y      cartes_z           fx          fy          fz
             1            0 9.583220      0.077630      9.598150       0.219562      -0.399056      0.554302
             2            0 2.354470      2.348810      0.037490       -0.100628      0.355489      -0.226414
             3            0 4.836240      14.396300      9.592300       -0.233436      0.108996      0.091827
             4            0 16.870600      7.289370      9.624980       0.072722      -0.566400      0.443197
             5            0 2.425230      9.625710      11.979900       0.205019      -0.035909      0.292062
             6            0 4.787330      11.997100      12.028500       0.303203      0.604426      0.069370
             7            0 7.222940      4.833680      2.446980       -0.250017      0.005123      0.044061
             8            0 9.634190      7.292600      2.436190       0.278981      -0.724541      -0.231712
             9            0 4.839350      9.602240      14.405200       0.172478      0.085035      0.498185
             10            0 7.234940      2.456820      4.921070       -0.267710      -0.204871      -0.351004
             11            0 9.673300      14.507400      14.390500       -0.194021      -0.449567      0.486398
             12            0 12.065300      16.852000      14.383500       0.135832      -0.034484      0.136171
             13            0 7.236290      9.618050      16.818300       0.103078      -0.059571      0.610519
             14            0 9.648110      12.059200      16.793200       -0.249600      -0.043147      0.582285
             15            0 11.999800      4.795660      7.241470       0.266571      0.236104      0.211839
             16            0 14.445800      16.782400      16.854900       0.142120      -0.016097      -0.321843
             17            0 0.011790      2.485930      2.486500       -0.290946      -0.221478      -0.180442
             18            0 12.065300      4.817120      11.989200       -0.250040      -0.176873      0.027247
             19            0 14.514200      7.234200      11.952300       -0.566001      -0.128572      0.443838
             20            0 16.862000      9.674070      12.062500       -0.376874      0.105167      0.095102
             21            0 2.410180      2.402070      4.807970       0.043105      0.027398      0.071969
             22            0 4.805850      4.822180      4.774040       -0.019848      -0.062293      0.379520
             23            0 7.300080      7.277630      4.814720       -0.729157      -0.519097      -0.014280
             24            0 9.710090      9.718450      4.772240       -0.534992      -0.942999      0.159501
             25            0 14.387600      11.948400      7.212900       -0.116238      0.517941      0.091954
             26            0 7.198700      4.847460      7.248380       0.065404      -0.500235      0.064511
             27            0 9.668990      7.235020      7.191480       -0.179497      -0.294515      0.303474
             28            0 11.979200      9.506910      7.233340       0.267605      0.232690      -0.344014
             29            0 7.204780      2.443710      9.619000       0.031108      -0.172226      0.320983
             30            0 9.574170      4.791760      9.626980       -0.006687      0.240260      0.194669
             31            0 11.954000      7.217820      9.628180       0.419130      -0.398451      0.094933
             32            0 14.440300      9.617230      9.565540       0.097770      -0.013387      0.207451
             33            0 9.629140      4.862670      14.466000       0.264749      0.174385      -0.146298
             34            0 12.047500      7.190600      14.379100       0.069552      0.145191      0.079746
             35            0 14.472000      9.614670      14.393400       -0.530967      -0.097377      0.564123
             36            0 7.223400      12.095800      4.892600       -0.048762      -0.251214      -0.578287
             37            0 12.003000      14.404100      7.254410       0.007660      0.138745      0.005506
             38            0 4.821750      7.184550      7.233630       -0.075506      0.126129      -0.113446
             39            0 7.232600      9.618320      7.191170       -0.071813      -0.174999      0.254317
             40            0 9.621500      12.042600      7.177650       0.323825      -0.017854      0.258784
             41            0 14.411000      14.364800      9.584540       -0.268130      0.604909      0.067550
             42            0 7.242600      7.235630      9.632550       0.303031      -0.239357      0.332475
             43            0 9.566920      9.742760      9.676360       0.130999      -0.719494      -0.396520
             44            0 11.982400      11.986100      9.620000       -0.248508      0.127423      0.037235
             45            0 16.822400      14.430100      12.071700       -0.015291      0.189443      -0.195810
             46            0 9.662480      7.272950      12.026600       0.036884      -0.415404      -0.171993
             47            0 12.060800      9.594390      11.964900       -0.270377      0.087971      0.458585
             48            0 14.431900      11.997800      12.041600       -0.527675      0.484379      0.062691
             49            0 0.017630      7.208240      7.223740       0.132843      0.078856      0.085493
             50            0 2.393830      9.535820      7.222060       0.184422      0.515375      -0.092283
             51            0 14.371300      11.965700      16.837100       0.313111      0.207746      0.000587
             52            0 7.200010      14.447600      7.271890       0.093862      -0.226216      -0.139191
             53            0 11.957200      16.870200      9.645580       0.788921      -0.291603      0.084557
             54            0 4.782160      9.615190      9.603970       0.794701      0.458816      -0.128326
             55            0 7.250420      12.009900      9.615820       -0.383721      0.485515      0.598059
             56            0 9.563120      14.469000      9.668140       0.294353      -0.300731      0.008805
             57            0 4.883370      7.211260      11.941800       -0.224107      0.043676      0.534650
             58            0 7.270550      9.691630      12.067200       -0.205499      -0.090120      0.002339
             59            0 9.626350      12.099200      12.090000       0.034139      -0.212715      0.235365
             60            0 12.081700      14.415500      11.986000       -0.478625      0.154607      0.118190
             61            0 7.319660      7.224490      14.463600       -0.613561      0.099840      -0.165771
             62            0 9.674030      9.685650      14.431800       -0.438267      -0.350369      0.279471
             63            0 12.067900      12.050800      14.483300       0.024591      -0.323984      -0.230944
             64            0 14.415200      14.482800      14.419300       0.349867      -0.193047      0.147468
             65            1 1.132050      1.223590      1.298540       0.570513      -0.069803      -1.046950
             66            1 3.615010      3.574200      1.139130       -0.189011      0.140771      0.807719
             67            1 6.031980      6.008880      1.157730       0.531814      -0.275476      0.036918
             68            1 8.443430      8.463500      1.276470       -0.524501      0.549594      -1.362606
             69            1 3.612460      1.180460      3.595200       -0.157467      0.005345      0.128050
             70            1 6.021370      3.562550      3.648400       -0.265293      0.654659      -0.299543
             71            1 8.456630      6.071520      3.603910       -0.339244      -0.189032      0.070656
             72            1 10.889000      8.447990      3.569150       -0.216737      0.290226      0.504602
             73            1 6.035690      1.187780      6.074920       -0.472743      -0.149056      -1.150080
             74            1 8.448410      3.670620      6.043140       0.101370      0.424650      -0.329785
             75            1 10.895900      6.033780      5.973310       -0.415759      -0.009046      0.495421
             76            1 13.297000      8.337690      5.991210       -0.699270      0.848842      0.182301
             77            1 8.412390      1.284570      8.369100       -0.302562      -0.794041      0.538538
             78            1 10.772100      3.580020      8.456820       0.671664      0.213714      -0.279362
             79            1 13.222400      6.014070      8.455350       -0.357539      -0.341693      -0.410647
             80            1 15.668600      8.353660      8.352890       -0.172210      1.387111      0.806344
             81            1 1.220540      3.694660      3.662450       0.270559      -0.727084      -0.406708
             82            1 3.651540      6.036630      3.497980       -0.061890      -0.205752      0.737589
             83            1 6.010270      8.420420      3.616260       0.915849      0.090287      -0.534183
             84            1 8.423840      10.888900      3.644450       -0.012292      0.105942      0.227208
             85            1 3.569720      3.594860      6.030320       0.731098      0.167489      -0.242230
             86            1 6.053340      6.024190      6.000960       -0.339351      0.079592      -0.109556
             87            1 8.511090      8.427800      5.994020       -0.397750      0.897330      -0.071114
             88            1 10.873500      10.812200      6.029730       -0.136526      0.268589      -0.100256
             89            1 5.942740      3.542760      8.421510       0.682379      0.643151      -0.624068
             90            1 8.439090      6.059380      8.418590       -0.236171      -0.477499      -0.204704
             91            1 10.714600      8.440950      8.516230       1.022996      0.033415      -0.896114
             92            1 13.140100      10.755700      8.373150       0.657921      0.130964      0.646297
             93            1 8.405250      3.612130      10.883300       -0.104035      0.140226      -0.468778
             94            1 10.779900      5.978200      10.830200       0.609397      0.357544      -0.095003
             95            1 13.254800      8.361070      10.757300       -0.140441      0.928492      0.230981
             96            1 15.625100      10.912700      10.863800       0.607355      -1.788493      -1.125246
             97            1 1.253920      6.010310      6.023630       -0.461737      0.185830      -0.070907
             98            1 3.607820      8.372890      5.977520       0.443214      0.354838      0.289025
             99            1 6.006980      10.834500      5.985990       0.007859      -0.436768      0.515756
             100            1 8.458340      13.304500      6.053030       -0.648209      -0.154173      -0.273551
             101            1 3.557690      6.018390      8.440630       0.192702      -0.348611      -0.106832
             102            1 6.033940      8.380950      8.474180       -0.232800      0.886246      -1.169996
             103            1 8.424320      10.879700      8.373090       -0.324104      -0.623049      0.320198
             104            1 10.745900      13.225500      8.449690       0.641489      0.204396      0.081979
             105            1 6.016320      5.948390      10.731200       0.337658      0.244818      1.022234
             106            1 8.470640      8.452540      10.855800       -1.094866      0.390539      -0.078165
             107            1 10.752200      10.864000      10.912500       1.099957      -0.205973      -0.764250
             108            1 13.234400      13.175900      10.783300       -0.155642      0.185656      0.371130
             109            1 8.492660      6.072400      13.202200       -0.961541      -0.665034      0.532762
             110            1 10.835100      8.452810      13.219700       0.522366      -0.062776      0.137897
             111            1 13.251900      10.773700      13.207300       -0.474872      0.552447      0.329629
             112            1 15.578600      13.186100      13.264400       0.736141      1.033212      0.096328
             113            1 1.182540      8.424620      8.432570       -0.405886      0.148560      0.251275
             114            1 3.537370      10.790600      8.434290       0.264643      -0.218527      -0.295986
             115            1 5.978230      13.114400      8.402870       0.607115      1.293653      0.143396
             116            1 8.425150      15.691900      8.459010       -0.296242      -0.463993      -0.224590
             117            1 3.662190      8.437130      10.772500       -1.036423      -0.486351      0.649058
             118            1 5.993220      10.855100      10.833900       0.610136      -0.817556      -0.234346
             119            1 8.426730      13.258800      10.933600       -0.517059      0.005394      -1.451676
             120            1 10.788200      15.639900      10.855100       0.465648      0.272472      -0.054278
             121            1 6.095590      8.417420      13.235000       -0.247775      -0.048168      -0.264728
             122            1 8.437300      10.954000      13.317900       -0.090626      -1.129542      -0.305788
             123            1 10.869400      13.248500      13.227600       0.313818      0.248769      0.500569
             124            1 13.240600      15.665700      13.174200       0.512699      -0.127894      -0.202344
             125            1 8.465990      8.436020      15.677400       0.300318      0.185442      -0.744710
             126            1 10.849800      10.802400      15.700400       0.450516      0.439488      -0.811680
             127            1 13.267400      13.300900      15.688800       -0.560173      -0.739407      -0.461366
             128            1 15.681800      15.639600      15.629500       -0.035144      -0.208282      -0.044520
 Energy
      -727.389445
 PlusStress:  xx          yy          zz          yz          xz          xy
      4.895380      4.113340      4.037770    0.475680      1.555960      -2.703440
 Feature   EFS_by	VASP
 Feature   mindist	1.476570
END_CFG

BEGIN_CFG
 Size
    128
 Supercell
         -0.000057      9.630810      9.630970
         9.630560      0.000038      9.630870
         9.630710      9.630860      -0.000106
 AtomData:  id type       cartes_x      cartes_y      cartes_z           fx          fy          fz